                         Program Version 4.0.1.2 - RELEASE -
|  1> !HF RHF 6-31G
|  2>     * int 0 1
|  3>     C 0 0 0 0 0 0
|  4>     C 1 0 0 1.32986 0 0
|  5>     H 1 2 0 1.08439 111.2 0
|  6>     H 1 2 3 1.08439 111.2 120
|  7>     H 1 2 3 1.08439 111.2 -120
|  8>     H 2 1 3 1.08439 111.2 180
|  9>     H 2 1 5 1.08439 111.2 120
| 10>     H 2 1 5 1.08439 111.2 240
| 11>     *
| 12>
| 13>
| 14>                          ****END OF INPUT****

CARTESIAN COORDINATES (ANGSTROEM)
---------------------------------
  C      0.000000    0.000000    0.000000
  C      1.329860    0.000000    0.000000
  H     -0.392142    1.011003    0.000000
  H     -0.392142   -0.505501   -0.875554
  H     -0.392142   -0.505501    0.875554
  H      1.722002   -1.011003    0.000000
  H      1.722002   -0.505501   -0.875554
  H      1.722002    1.011003   -0.000000

 Total Charge           Charge          ....    0
 Multiplicity           Mult            ....    1
 Number of Electrons    NEL             ....   18
 Basis Dimension        Dim             ....   30

ORBITAL ENERGIES
----------------

  NO   OCC          E(Eh)            E(eV)
   0   2.0000     -11.195074      -304.6334
   1   2.0000     -11.192425      -304.5614
   2   2.0000      -1.096263       -29.8308
   3   2.0000      -0.864203       -23.5161
   4   2.0000      -0.680097       -18.5064
   5   2.0000      -0.589806       -16.0494
   6   2.0000      -0.558385       -15.1944
   7   2.0000      -0.491809       -13.3828
   8   2.0000      -0.356047        -9.6885
   9   0.0000       0.226140         6.1536
  10   0.0000       0.246264         6.7012
  11   0.0000       0.287576         7.8254
  12   0.0000       0.299136         8.1399
  13   0.0000       0.371854        10.1187

MULLIKEN ATOMIC CHARGES
-----------------------
   0 C :   -0.455512
   1 C :   -0.482797
   2 H :    0.152143
   3 H :    0.141197
   4 H :    0.151097
   5 H :    0.157973
   6 H :    0.130282
   7 H :    0.205617
Sum of atomic charges:   -0.0000000

LOEWDIN ATOMIC CHARGES
----------------------
   0 C :   -0.309213
   1 C :   -0.430267
   2 H :    0.108835
   3 H :    0.098068
   4 H :    0.097184
   5 H :    0.163426
   6 H :    0.128191
   7 H :    0.143777

  Mayer bond orders larger than 0.1
B(  0-C ,  1-C ) :   0.8878 B(  0-C ,  2-H ) :   0.9793 B(  0-C ,  3-H ) :   0.9764
B(  0-C ,  4-H ) :   0.9665 B(  1-C ,  5-H ) :   0.9359 B(  1-C ,  6-H ) :   0.9143
B(  1-C ,  7-H ) :   0.9657

FINAL SINGLE POINT ENERGY       -79.045965591884

DIPOLE MOMENT
-------------
                                X             Y             Z
Electronic contribution:      0.09152       0.24195       0.33842
Nuclear contribution   :     -0.00000      -0.37886      -0.65621
                        -----------------------------------------
Total Dipole Moment    :      0.09152      -0.13692      -0.31779
                        -----------------------------------------
Magnitude (a.u.)       :      0.35793
Magnitude (Debye)      :      0.90978

                             ****ORCA TERMINATED NORMALLY****
TOTAL RUN TIME: 0 days 0 hours 0 minutes 1 seconds 499 msec
