                         Program Version 4.0.1.2 - RELEASE -
|  1> !HF RHF 6-31G
|  2>     * int 0 1
|  3>     C 0 0 0 0 0 0
|  4>     C 1 0 0 1.34986 0 0
|  5>     H 1 2 0 1.08439 111.2 0
|  6>     H 1 2 3 1.08439 111.2 120
|  7>     H 1 2 3 1.08439 111.2 -120
|  8>     H 2 1 3 1.08439 111.2 180
|  9>     H 2 1 5 1.08439 111.2 120
| 10>     H 2 1 5 1.08439 111.2 240
| 11>     *
| 12>
| 13>
| 14>                          ****END OF INPUT****

CARTESIAN COORDINATES (ANGSTROEM)
---------------------------------
  C      0.000000    0.000000    0.000000
  C      1.349860    0.000000    0.000000
  H     -0.392142    1.011003    0.000000
  H     -0.392142   -0.505501   -0.875554
  H     -0.392142   -0.505501    0.875554
  H      1.742002   -1.011003    0.000000
  H      1.742002   -0.505501   -0.875554
  H      1.742002    1.011003   -0.000000

 Total Charge           Charge          ....    0
 Multiplicity           Mult            ....    1
 Number of Electrons    NEL             ....   18
 Basis Dimension        Dim             ....   30

ORBITAL ENERGIES
----------------

  NO   OCC          E(Eh)            E(eV)
   0   2.0000     -11.196524      -304.6729
   1   2.0000     -11.194051      -304.6056
   2   2.0000      -1.089612       -29.6499
   3   2.0000      -0.865750       -23.5582
   4   2.0000      -0.677129       -18.4256
   5   2.0000      -0.586295       -15.9539
   6   2.0000      -0.554900       -15.0996
   7   2.0000      -0.493795       -13.4369
   8   2.0000      -0.358242        -9.7483
   9   0.0000       0.226218         6.1557
  10   0.0000       0.247813         6.7433
  11   0.0000       0.288335         7.8460
  12   0.0000       0.299150         8.1403
  13   0.0000       0.370844        10.0912

MULLIKEN ATOMIC CHARGES
-----------------------
   0 C :   -0.454887
   1 C :   -0.483680
   2 H :    0.152337
   3 H :    0.141702
   4 H :    0.151793
   5 H :    0.158054
   6 H :    0.129467
   7 H :    0.205213
Sum of atomic charges:   -0.0000000

LOEWDIN ATOMIC CHARGES
----------------------
   0 C :   -0.309702
   1 C :   -0.431450
   2 H :    0.108825
   3 H :    0.098354
   4 H :    0.097967
   5 H :    0.163943
   6 H :    0.128347
   7 H :    0.143714

  Mayer bond orders larger than 0.1
B(  0-C ,  1-C ) :   0.8923 B(  0-C ,  2-H ) :   0.9781 B(  0-C ,  3-H ) :   0.9751
B(  0-C ,  4-H ) :   0.9659 B(  1-C ,  5-H ) :   0.9355 B(  1-C ,  6-H ) :   0.9134
B(  1-C ,  7-H ) :   0.9651

FINAL SINGLE POINT ENERGY       -79.053603049210

DIPOLE MOMENT
-------------
                                X             Y             Z
Electronic contribution:      0.08887       0.24155       0.33959
Nuclear contribution   :     -0.00000      -0.37886      -0.65621
                        -----------------------------------------
Total Dipole Moment    :      0.08887      -0.13731      -0.31662
                        -----------------------------------------
Magnitude (a.u.)       :      0.35638
Magnitude (Debye)      :      0.90583

                             ****ORCA TERMINATED NORMALLY****
TOTAL RUN TIME: 0 days 0 hours 0 minutes 1 seconds 90 msec
