                         Program Version 4.0.1.2 - RELEASE -
|  1> !HF RHF 6-31G
|  2>     * int 0 1
|  3>     C 0 0 0 0 0 0
|  4>     C 1 0 0 1.36986 0 0
|  5>     H 1 2 0 1.08439 111.2 0
|  6>     H 1 2 3 1.08439 111.2 120
|  7>     H 1 2 3 1.08439 111.2 -120
|  8>     H 2 1 3 1.08439 111.2 180
|  9>     H 2 1 5 1.08439 111.2 120
| 10>     H 2 1 5 1.08439 111.2 240
| 11>     *
| 12>
| 13>
| 14>                          ****END OF INPUT****

CARTESIAN COORDINATES (ANGSTROEM)
---------------------------------
  C      0.000000    0.000000    0.000000
  C      1.369860    0.000000    0.000000
  H     -0.392142    1.011003    0.000000
  H     -0.392142   -0.505501   -0.875554
  H     -0.392142   -0.505501    0.875554
  H      1.762002   -1.011003    0.000000
  H      1.762002   -0.505501   -0.875554
  H      1.762002    1.011003   -0.000000

 Total Charge           Charge          ....    0
 Multiplicity           Mult            ....    1
 Number of Electrons    NEL             ....   18
 Basis Dimension        Dim             ....   30

ORBITAL ENERGIES
----------------

  NO   OCC          E(Eh)            E(eV)
   0   2.0000     -11.198030      -304.7139
   1   2.0000     -11.195721      -304.6511
   2   2.0000      -1.083209       -29.4756
   3   2.0000      -0.867295       -23.6003
   4   2.0000      -0.674291       -18.3484
   5   2.0000      -0.582973       -15.8635
   6   2.0000      -0.551437       -15.0054
   7   2.0000      -0.495623       -13.4866
   8   2.0000      -0.360338        -9.8053
   9   0.0000       0.226294         6.1578
  10   0.0000       0.249316         6.7842
  11   0.0000       0.288791         7.8584
  12   0.0000       0.299386         8.1467
  13   0.0000       0.369824        10.0634

MULLIKEN ATOMIC CHARGES
-----------------------
   0 C :   -0.454341
   1 C :   -0.484438
   2 H :    0.152527
   3 H :    0.142191
   4 H :    0.152443
   5 H :    0.158126
   6 H :    0.128674
   7 H :    0.204818
Sum of atomic charges:   -0.0000000

LOEWDIN ATOMIC CHARGES
----------------------
   0 C :   -0.310166
   1 C :   -0.432602
   2 H :    0.108820
   3 H :    0.098637
   4 H :    0.098709
   5 H :    0.164444
   6 H :    0.128494
   7 H :    0.143664

  Mayer bond orders larger than 0.1
B(  0-C ,  1-C ) :   0.8967 B(  0-C ,  2-H ) :   0.9768 B(  0-C ,  3-H ) :   0.9737
B(  0-C ,  4-H ) :   0.9654 B(  1-C ,  5-H ) :   0.9350 B(  1-C ,  6-H ) :   0.9126
B(  1-C ,  7-H ) :   0.9644

FINAL SINGLE POINT ENERGY       -79.060094934470

DIPOLE MOMENT
-------------
                                X             Y             Z
Electronic contribution:      0.08631       0.24124       0.34066
Nuclear contribution   :     -0.00000      -0.37886      -0.65621
                        -----------------------------------------
Total Dipole Moment    :      0.08631      -0.13763      -0.31555
                        -----------------------------------------
Magnitude (a.u.)       :      0.35491
Magnitude (Debye)      :      0.90211

                             ****ORCA TERMINATED NORMALLY****
TOTAL RUN TIME: 0 days 0 hours 0 minutes 1 seconds 147 msec
