                         Program Version 4.0.1.2 - RELEASE -
|  1> !HF RHF 6-31G
|  2>     * int 0 1
|  3>     C 0 0 0 0 0 0
|  4>     C 1 0 0 1.38986 0 0
|  5>     H 1 2 0 1.08439 111.2 0
|  6>     H 1 2 3 1.08439 111.2 120
|  7>     H 1 2 3 1.08439 111.2 -120
|  8>     H 2 1 3 1.08439 111.2 180
|  9>     H 2 1 5 1.08439 111.2 120
| 10>     H 2 1 5 1.08439 111.2 240
| 11>     *
| 12>
| 13>
| 14>                          ****END OF INPUT****

CARTESIAN COORDINATES (ANGSTROEM)
---------------------------------
  C      0.000000    0.000000    0.000000
  C      1.389860    0.000000    0.000000
  H     -0.392142    1.011003    0.000000
  H     -0.392142   -0.505501   -0.875554
  H     -0.392142   -0.505501    0.875554
  H      1.782002   -1.011003    0.000000
  H      1.782002   -0.505501   -0.875554
  H      1.782002    1.011003   -0.000000

 Total Charge           Charge          ....    0
 Multiplicity           Mult            ....    1
 Number of Electrons    NEL             ....   18
 Basis Dimension        Dim             ....   30

ORBITAL ENERGIES
----------------

  NO   OCC          E(Eh)            E(eV)
   0   2.0000     -11.199580      -304.7561
   1   2.0000     -11.197428      -304.6975
   2   2.0000      -1.077053       -29.3081
   3   2.0000      -0.868835       -23.6422
   4   2.0000      -0.671581       -18.2747
   5   2.0000      -0.579842       -15.7783
   6   2.0000      -0.548013       -14.9122
   7   2.0000      -0.497273       -13.5315
   8   2.0000      -0.362339        -9.8597
   9   0.0000       0.226371         6.1599
  10   0.0000       0.250772         6.8239
  11   0.0000       0.288940         7.8625
  12   0.0000       0.299849         8.1593
  13   0.0000       0.368791        10.0353

MULLIKEN ATOMIC CHARGES
-----------------------
   0 C :   -0.453861
   1 C :   -0.485084
   2 H :    0.152713
   3 H :    0.142664
   4 H :    0.153048
   5 H :    0.158189
   6 H :    0.127900
   7 H :    0.204431
Sum of atomic charges:   -0.0000000

LOEWDIN ATOMIC CHARGES
----------------------
   0 C :   -0.310606
   1 C :   -0.433724
   2 H :    0.108820
   3 H :    0.098917
   4 H :    0.099411
   5 H :    0.164929
   6 H :    0.128628
   7 H :    0.143626

  Mayer bond orders larger than 0.1
B(  0-C ,  1-C ) :   0.9012 B(  0-C ,  2-H ) :   0.9756 B(  0-C ,  3-H ) :   0.9724
B(  0-C ,  4-H ) :   0.9648 B(  1-C ,  5-H ) :   0.9344 B(  1-C ,  6-H ) :   0.9117
B(  1-C ,  7-H ) :   0.9637

FINAL SINGLE POINT ENERGY       -79.065544856336

DIPOLE MOMENT
-------------
                                X             Y             Z
Electronic contribution:      0.08384       0.24099       0.34166
Nuclear contribution   :      0.00000      -0.37886      -0.65621
                        -----------------------------------------
Total Dipole Moment    :      0.08384      -0.13787      -0.31455
                        -----------------------------------------
Magnitude (a.u.)       :      0.35353
Magnitude (Debye)      :      0.89859

                             ****ORCA TERMINATED NORMALLY****
TOTAL RUN TIME: 0 days 0 hours 0 minutes 1 seconds 108 msec
