                         Program Version 4.0.1.2 - RELEASE -
|  1> !HF RHF 6-31G
|  2>     * int 0 1
|  3>     C 0 0 0 0 0 0
|  4>     C 1 0 0 1.40986 0 0
|  5>     H 1 2 0 1.08439 111.2 0
|  6>     H 1 2 3 1.08439 111.2 120
|  7>     H 1 2 3 1.08439 111.2 -120
|  8>     H 2 1 3 1.08439 111.2 180
|  9>     H 2 1 5 1.08439 111.2 120
| 10>     H 2 1 5 1.08439 111.2 240
| 11>     *
| 12>
| 13>
| 14>                          ****END OF INPUT****

CARTESIAN COORDINATES (ANGSTROEM)
---------------------------------
  C      0.000000    0.000000    0.000000
  C      1.409860    0.000000    0.000000
  H     -0.392142    1.011003    0.000000
  H     -0.392142   -0.505501   -0.875554
  H     -0.392142   -0.505501    0.875554
  H      1.802002   -1.011003    0.000000
  H      1.802002   -0.505501   -0.875554
  H      1.802002    1.011003   -0.000000

 Total Charge           Charge          ....    0
 Multiplicity           Mult            ....    1
 Number of Electrons    NEL             ....   18
 Basis Dimension        Dim             ....   30

ORBITAL ENERGIES
----------------

  NO   OCC          E(Eh)            E(eV)
   0   2.0000     -11.201165      -304.7992
   1   2.0000     -11.199164      -304.7447
   2   2.0000      -1.071144       -29.1473
   3   2.0000      -0.870366       -23.6839
   4   2.0000      -0.668997       -18.2043
   5   2.0000      -0.576904       -15.6984
   6   2.0000      -0.544655       -14.8208
   7   2.0000      -0.498719       -13.5708
   8   2.0000      -0.364246        -9.9116
   9   0.0000       0.226448         6.1620
  10   0.0000       0.252183         6.8623
  11   0.0000       0.288810         7.8589
  12   0.0000       0.300508         8.1772
  13   0.0000       0.367742        10.0068

MULLIKEN ATOMIC CHARGES
-----------------------
   0 C :   -0.453438
   1 C :   -0.485626
   2 H :    0.152891
   3 H :    0.143119
   4 H :    0.153611
   5 H :    0.158245
   6 H :    0.127143
   7 H :    0.204054
Sum of atomic charges:   -0.0000000

LOEWDIN ATOMIC CHARGES
----------------------
   0 C :   -0.311021
   1 C :   -0.434819
   2 H :    0.108823
   3 H :    0.099192
   4 H :    0.100076
   5 H :    0.165398
   6 H :    0.128752
   7 H :    0.143599

  Mayer bond orders larger than 0.1
B(  0-C ,  1-C ) :   0.9056 B(  0-C ,  2-H ) :   0.9744 B(  0-C ,  3-H ) :   0.9711
B(  0-C ,  4-H ) :   0.9641 B(  1-C ,  5-H ) :   0.9338 B(  1-C ,  6-H ) :   0.9109
B(  1-C ,  7-H ) :   0.9629

FINAL SINGLE POINT ENERGY       -79.070047524841

DIPOLE MOMENT
-------------
                                X             Y             Z
Electronic contribution:      0.08143       0.24081       0.34258
Nuclear contribution   :     -0.00000      -0.37886      -0.65621
                        -----------------------------------------
Total Dipole Moment    :      0.08143      -0.13806      -0.31363
                        -----------------------------------------
Magnitude (a.u.)       :      0.35222
Magnitude (Debye)      :      0.89527

                             ****ORCA TERMINATED NORMALLY****
TOTAL RUN TIME: 0 days 0 hours 0 minutes 1 seconds 6 msec
