                         Program Version 4.0.1.2 - RELEASE -
|  1> !HF RHF 6-31G
|  2>     * int 0 1
|  3>     C 0 0 0 0 0 0
|  4>     C 1 0 0 1.42986 0 0
|  5>     H 1 2 0 1.08439 111.2 0
|  6>     H 1 2 3 1.08439 111.2 120
|  7>     H 1 2 3 1.08439 111.2 -120
|  8>     H 2 1 3 1.08439 111.2 180
|  9>     H 2 1 5 1.08439 111.2 120
| 10>     H 2 1 5 1.08439 111.2 240
| 11>     *
| 12>
| 13>
| 14>                          ****END OF INPUT****

CARTESIAN COORDINATES (ANGSTROEM)
---------------------------------
  C      0.000000    0.000000    0.000000
  C      1.429860    0.000000    0.000000
  H     -0.392142    1.011003    0.000000
  H     -0.392142   -0.505501   -0.875554
  H     -0.392142   -0.505501    0.875554
  H      1.822002   -1.011003    0.000000
  H      1.822002   -0.505501   -0.875554
  H      1.822002    1.011003   -0.000000

 Total Charge           Charge          ....    0
 Multiplicity           Mult            ....    1
 Number of Electrons    NEL             ....   18
 Basis Dimension        Dim             ....   30

ORBITAL ENERGIES
----------------

  NO   OCC          E(Eh)            E(eV)
   0   2.0000     -11.202775      -304.8430
   1   2.0000     -11.200921      -304.7926
   2   2.0000      -1.065480       -28.9932
   3   2.0000      -0.871885       -23.7252
   4   2.0000      -0.666536       -18.1374
   5   2.0000      -0.574156       -15.6236
   6   2.0000      -0.541402       -14.7323
   7   2.0000      -0.499922       -13.6036
   8   2.0000      -0.366062        -9.9611
   9   0.0000       0.226527         6.1641
  10   0.0000       0.253549         6.8994
  11   0.0000       0.288450         7.8491
  12   0.0000       0.301315         8.1992
  13   0.0000       0.366673         9.9777

MULLIKEN ATOMIC CHARGES
-----------------------
   0 C :   -0.453059
   1 C :   -0.486072
   2 H :    0.153062
   3 H :    0.143556
   4 H :    0.154132
   5 H :    0.158294
   6 H :    0.126400
   7 H :    0.203687
Sum of atomic charges:    0.0000000

LOEWDIN ATOMIC CHARGES
----------------------
   0 C :   -0.311411
   1 C :   -0.435887
   2 H :    0.108830
   3 H :    0.099464
   4 H :    0.100707
   5 H :    0.165851
   6 H :    0.128863
   7 H :    0.143582

  Mayer bond orders larger than 0.1
B(  0-C ,  1-C ) :   0.9099 B(  0-C ,  2-H ) :   0.9733 B(  0-C ,  3-H ) :   0.9699
B(  0-C ,  4-H ) :   0.9635 B(  1-C ,  5-H ) :   0.9331 B(  1-C ,  6-H ) :   0.9101
B(  1-C ,  7-H ) :   0.9621

FINAL SINGLE POINT ENERGY       -79.073689505959

DIPOLE MOMENT
-------------
                                X             Y             Z
Electronic contribution:      0.07910       0.24068       0.34342
Nuclear contribution   :     -0.00000      -0.37886      -0.65621
                        -----------------------------------------
Total Dipole Moment    :      0.07910      -0.13818      -0.31279
                        -----------------------------------------
Magnitude (a.u.)       :      0.35098
Magnitude (Debye)      :      0.89213

                             ****ORCA TERMINATED NORMALLY****
TOTAL RUN TIME: 0 days 0 hours 0 minutes 1 seconds 28 msec
