                         Program Version 4.0.1.2 - RELEASE -
|  1> !HF RHF 6-31G
|  2>     * int 0 1
|  3>     C 0 0 0 0 0 0
|  4>     C 1 0 0 1.44986 0 0
|  5>     H 1 2 0 1.08439 111.2 0
|  6>     H 1 2 3 1.08439 111.2 120
|  7>     H 1 2 3 1.08439 111.2 -120
|  8>     H 2 1 3 1.08439 111.2 180
|  9>     H 2 1 5 1.08439 111.2 120
| 10>     H 2 1 5 1.08439 111.2 240
| 11>     *
| 12>
| 13>
| 14>                          ****END OF INPUT****

CARTESIAN COORDINATES (ANGSTROEM)
---------------------------------
  C      0.000000    0.000000    0.000000
  C      1.449860    0.000000    0.000000
  H     -0.392142    1.011003    0.000000
  H     -0.392142   -0.505501   -0.875554
  H     -0.392142   -0.505501    0.875554
  H      1.842002   -1.011003    0.000000
  H      1.842002   -0.505501   -0.875554
  H      1.842002    1.011003   -0.000000

 Total Charge           Charge          ....    0
 Multiplicity           Mult            ....    1
 Number of Electrons    NEL             ....   18
 Basis Dimension        Dim             ....   30

ORBITAL ENERGIES
----------------

  NO   OCC          E(Eh)            E(eV)
   0   2.0000     -11.204402      -304.8873
   1   2.0000     -11.202693      -304.8408
   2   2.0000      -1.060058       -28.8456
   3   2.0000      -0.873390       -23.7661
   4   2.0000      -0.664195       -18.0737
   5   2.0000      -0.571594       -15.5539
   6   2.0000      -0.538313       -14.6482
   7   2.0000      -0.500830       -13.6283
   8   2.0000      -0.367789       -10.0081
   9   0.0000       0.226608         6.1663
  10   0.0000       0.254872         6.9354
  11   0.0000       0.287907         7.8344
  12   0.0000       0.302219         8.2238
  13   0.0000       0.365578         9.9479

MULLIKEN ATOMIC CHARGES
-----------------------
   0 C :   -0.452714
   1 C :   -0.486428
   2 H :    0.153223
   3 H :    0.143974
   4 H :    0.154613
   5 H :    0.158336
   6 H :    0.125668
   7 H :    0.203329
Sum of atomic charges:   -0.0000000

LOEWDIN ATOMIC CHARGES
----------------------
   0 C :   -0.311775
   1 C :   -0.436927
   2 H :    0.108840
   3 H :    0.099731
   4 H :    0.101305
   5 H :    0.166289
   6 H :    0.128962
   7 H :    0.143575

  Mayer bond orders larger than 0.1
B(  0-C ,  1-C ) :   0.9142 B(  0-C ,  2-H ) :   0.9721 B(  0-C ,  3-H ) :   0.9687
B(  0-C ,  4-H ) :   0.9628 B(  1-C ,  5-H ) :   0.9324 B(  1-C ,  6-H ) :   0.9093
B(  1-C ,  7-H ) :   0.9613

FINAL SINGLE POINT ENERGY       -79.076549917157

DIPOLE MOMENT
-------------
                                X             Y             Z
Electronic contribution:      0.07683       0.24061       0.34419
Nuclear contribution   :     -0.00000      -0.37886      -0.65621
                        -----------------------------------------
Total Dipole Moment    :      0.07683      -0.13825      -0.31202
                        -----------------------------------------
Magnitude (a.u.)       :      0.34982
Magnitude (Debye)      :      0.88916

                             ****ORCA TERMINATED NORMALLY****
TOTAL RUN TIME: 0 days 0 hours 0 minutes 1 seconds 22 msec
