                         Program Version 4.0.1.2 - RELEASE -
|  1> !HF RHF 6-31G
|  2>     * int 0 1
|  3>     C 0 0 0 0 0 0
|  4>     C 1 0 0 1.46986 0 0
|  5>     H 1 2 0 1.08439 111.2 0
|  6>     H 1 2 3 1.08439 111.2 120
|  7>     H 1 2 3 1.08439 111.2 -120
|  8>     H 2 1 3 1.08439 111.2 180
|  9>     H 2 1 5 1.08439 111.2 120
| 10>     H 2 1 5 1.08439 111.2 240
| 11>     *
| 12>
| 13>
| 14>                          ****END OF INPUT****

CARTESIAN COORDINATES (ANGSTROEM)
---------------------------------
  C      0.000000    0.000000    0.000000
  C      1.469860    0.000000    0.000000
  H     -0.392142    1.011003    0.000000
  H     -0.392142   -0.505501   -0.875554
  H     -0.392142   -0.505501    0.875554
  H      1.862002   -1.011003    0.000000
  H      1.862002   -0.505501   -0.875554
  H      1.862002    1.011003   -0.000000

 Total Charge           Charge          ....    0
 Multiplicity           Mult            ....    1
 Number of Electrons    NEL             ....   18
 Basis Dimension        Dim             ....   30

ORBITAL ENERGIES
----------------

  NO   OCC          E(Eh)            E(eV)
   0   2.0000     -11.206041      -304.9319
   1   2.0000     -11.204473      -304.8892
   2   2.0000      -1.054874       -28.7046
   3   2.0000      -0.874877       -23.8066
   4   2.0000      -0.661972       -18.0132
   5   2.0000      -0.569213       -15.4891
   6   2.0000      -0.535464       -14.5707
   7   2.0000      -0.501372       -13.6430
   8   2.0000      -0.369429       -10.0527
   9   0.0000       0.226691         6.1686
  10   0.0000       0.256153         6.9703
  11   0.0000       0.287220         7.8157
  12   0.0000       0.303180         8.2499
  13   0.0000       0.364449         9.9172

MULLIKEN ATOMIC CHARGES
-----------------------
   0 C :   -0.452393
   1 C :   -0.486699
   2 H :    0.153372
   3 H :    0.144371
   4 H :    0.155053
   5 H :    0.158371
   6 H :    0.124945
   7 H :    0.202980
Sum of atomic charges:   -0.0000000

LOEWDIN ATOMIC CHARGES
----------------------
   0 C :   -0.312114
   1 C :   -0.437940
   2 H :    0.108853
   3 H :    0.099993
   4 H :    0.101871
   5 H :    0.166712
   6 H :    0.129047
   7 H :    0.143578

  Mayer bond orders larger than 0.1
B(  0-C ,  1-C ) :   0.9184 B(  0-C ,  2-H ) :   0.9710 B(  0-C ,  3-H ) :   0.9675
B(  0-C ,  4-H ) :   0.9622 B(  1-C ,  5-H ) :   0.9316 B(  1-C ,  6-H ) :   0.9086
B(  1-C ,  7-H ) :   0.9604

FINAL SINGLE POINT ENERGY       -79.078701062072

DIPOLE MOMENT
-------------
                                X             Y             Z
Electronic contribution:      0.07461       0.24059       0.34490
Nuclear contribution   :     -0.00000      -0.37886      -0.65621
                        -----------------------------------------
Total Dipole Moment    :      0.07461      -0.13828      -0.31131
                        -----------------------------------------
Magnitude (a.u.)       :      0.34871
Magnitude (Debye)      :      0.88636

                             ****ORCA TERMINATED NORMALLY****
TOTAL RUN TIME: 0 days 0 hours 0 minutes 1 seconds 130 msec
