                         Program Version 4.0.1.2 - RELEASE -
|  1> !HF RHF 6-31G
|  2>     * int 0 1
|  3>     C 0 0 0 0 0 0
|  4>     C 1 0 0 1.48986 0 0
|  5>     H 1 2 0 1.08439 111.2 0
|  6>     H 1 2 3 1.08439 111.2 120
|  7>     H 1 2 3 1.08439 111.2 -120
|  8>     H 2 1 3 1.08439 111.2 180
|  9>     H 2 1 5 1.08439 111.2 120
| 10>     H 2 1 5 1.08439 111.2 240
| 11>     *
| 12>
| 13>
| 14>                          ****END OF INPUT****

CARTESIAN COORDINATES (ANGSTROEM)
---------------------------------
  C      0.000000    0.000000    0.000000
  C      1.489860    0.000000    0.000000
  H     -0.392142    1.011003    0.000000
  H     -0.392142   -0.505501   -0.875554
  H     -0.392142   -0.505501    0.875554
  H      1.882002   -1.011003    0.000000
  H      1.882002   -0.505501   -0.875554
  H      1.882002    1.011003   -0.000000

 Total Charge           Charge          ....    0
 Multiplicity           Mult            ....    1
 Number of Electrons    NEL             ....   18
 Basis Dimension        Dim             ....   30

ORBITAL ENERGIES
----------------

  NO   OCC          E(Eh)            E(eV)
   0   2.0000     -11.207684      -304.9766
   1   2.0000     -11.206257      -304.9378
   2   2.0000      -1.049924       -28.5699
   3   2.0000      -0.876345       -23.8466
   4   2.0000      -0.659864       -17.9558
   5   2.0000      -0.567006       -15.4290
   6   2.0000      -0.532950       -14.5023
   7   2.0000      -0.501460       -13.6454
   8   2.0000      -0.370985       -10.0950
   9   0.0000       0.226777         6.1709
  10   0.0000       0.257392         7.0040
  11   0.0000       0.286413         7.7937
  12   0.0000       0.304170         8.2769
  13   0.0000       0.363277         9.8853

MULLIKEN ATOMIC CHARGES
-----------------------
   0 C :   -0.452085
   1 C :   -0.486888
   2 H :    0.153508
   3 H :    0.144745
   4 H :    0.155454
   5 H :    0.158399
   6 H :    0.124228
   7 H :    0.202638
Sum of atomic charges:   -0.0000000

LOEWDIN ATOMIC CHARGES
----------------------
   0 C :   -0.312426
   1 C :   -0.438925
   2 H :    0.108867
   3 H :    0.100249
   4 H :    0.102407
   5 H :    0.167121
   6 H :    0.129119
   7 H :    0.143588

  Mayer bond orders larger than 0.1
B(  0-C ,  1-C ) :   0.9225 B(  0-C ,  2-H ) :   0.9699 B(  0-C ,  3-H ) :   0.9663
B(  0-C ,  4-H ) :   0.9615 B(  1-C ,  5-H ) :   0.9309 B(  1-C ,  6-H ) :   0.9079
B(  1-C ,  7-H ) :   0.9596

FINAL SINGLE POINT ENERGY       -79.080208995891

DIPOLE MOMENT
-------------
                                X             Y             Z
Electronic contribution:      0.07245       0.24061       0.34555
Nuclear contribution   :      0.00000      -0.37886      -0.65621
                        -----------------------------------------
Total Dipole Moment    :      0.07245      -0.13825      -0.31066
                        -----------------------------------------
Magnitude (a.u.)       :      0.34767
Magnitude (Debye)      :      0.88371

                             ****ORCA TERMINATED NORMALLY****
TOTAL RUN TIME: 0 days 0 hours 0 minutes 1 seconds 71 msec
