                         Program Version 4.0.1.2 - RELEASE -
|  1> !HF RHF 6-31G
|  2>     * int 0 1
|  3>     C 0 0 0 0 0 0
|  4>     C 1 0 0 1.52986 0 0
|  5>     H 1 2 0 1.08439 111.2 0
|  6>     H 1 2 3 1.08439 111.2 120
|  7>     H 1 2 3 1.08439 111.2 -120
|  8>     H 2 1 3 1.08439 111.2 180
|  9>     H 2 1 5 1.08439 111.2 120
| 10>     H 2 1 5 1.08439 111.2 240
| 11>     *
| 12>
| 13>
| 14>                          ****END OF INPUT****

CARTESIAN COORDINATES (ANGSTROEM)
---------------------------------
  C      0.000000    0.000000    0.000000
  C      1.529860    0.000000    0.000000
  H     -0.392142    1.011003    0.000000
  H     -0.392142   -0.505501   -0.875554
  H     -0.392142   -0.505501    0.875554
  H      1.922002   -1.011003    0.000000
  H      1.922002   -0.505501   -0.875554
  H      1.922002    1.011003   -0.000000

 Total Charge           Charge          ....    0
 Multiplicity           Mult            ....    1
 Number of Electrons    NEL             ....   18
 Basis Dimension        Dim             ....   30

ORBITAL ENERGIES
----------------

  NO   OCC          E(Eh)            E(eV)
   0   2.0000     -11.210966      -305.0659
   1   2.0000     -11.209816      -305.0346
   2   2.0000      -1.040705       -28.3190
   3   2.0000      -0.879218       -23.9247
   4   2.0000      -0.655981       -17.8501
   5   2.0000      -0.563077       -15.3221
   6   2.0000      -0.529302       -14.4030
   7   2.0000      -0.499943       -13.6042
   8   2.0000      -0.373852       -10.1730
   9   0.0000       0.226951         6.1756
  10   0.0000       0.259749         7.0681
  11   0.0000       0.284495         7.7415
  12   0.0000       0.306166         8.3312
  13   0.0000       0.360751         9.8165

MULLIKEN ATOMIC CHARGES
-----------------------
   0 C :   -0.451474
   1 C :   -0.487031
   2 H :    0.153733
   3 H :    0.145423
   4 H :    0.156139
   5 H :    0.158430
   6 H :    0.122806
   7 H :    0.201974
Sum of atomic charges:   -0.0000000

LOEWDIN ATOMIC CHARGES
----------------------
   0 C :   -0.312969
   1 C :   -0.440810
   2 H :    0.108898
   3 H :    0.100742
   4 H :    0.103394
   5 H :    0.167893
   6 H :    0.129223
   7 H :    0.143630

  Mayer bond orders larger than 0.1
B(  0-C ,  1-C ) :   0.9303 B(  0-C ,  2-H ) :   0.9678 B(  0-C ,  3-H ) :   0.9642
B(  0-C ,  4-H ) :   0.9602 B(  1-C ,  5-H ) :   0.9293 B(  1-C ,  6-H ) :   0.9066
B(  1-C ,  7-H ) :   0.9578

FINAL SINGLE POINT ENERGY       -79.081531432268

DIPOLE MOMENT
-------------
                                X             Y             Z
Electronic contribution:      0.06827       0.24077       0.34667
Nuclear contribution   :      0.00000      -0.37886      -0.65621
                        -----------------------------------------
Total Dipole Moment    :      0.06827      -0.13809      -0.30954
                        -----------------------------------------
Magnitude (a.u.)       :      0.34576
Magnitude (Debye)      :      0.87884

                             ****ORCA TERMINATED NORMALLY****
TOTAL RUN TIME: 0 days 0 hours 0 minutes 1 seconds 63 msec
