                         Program Version 4.0.1.2 - RELEASE -
|  1> !HF RHF 6-31G
|  2>     * int 0 1
|  3>     C 0 0 0 0 0 0
|  4>     C 1 0 0 1.54986 0 0
|  5>     H 1 2 0 1.08439 111.2 0
|  6>     H 1 2 3 1.08439 111.2 120
|  7>     H 1 2 3 1.08439 111.2 -120
|  8>     H 2 1 3 1.08439 111.2 180
|  9>     H 2 1 5 1.08439 111.2 120
| 10>     H 2 1 5 1.08439 111.2 240
| 11>     *
| 12>
| 13>
| 14>                          ****END OF INPUT****

CARTESIAN COORDINATES (ANGSTROEM)
---------------------------------
  C      0.000000    0.000000    0.000000
  C      1.549860    0.000000    0.000000
  H     -0.392142    1.011003    0.000000
  H     -0.392142   -0.505501   -0.875554
  H     -0.392142   -0.505501    0.875554
  H      1.942002   -1.011003    0.000000
  H      1.942002   -0.505501   -0.875554
  H      1.942002    1.011003   -0.000000

 Total Charge           Charge          ....    0
 Multiplicity           Mult            ....    1
 Number of Electrons    NEL             ....   18
 Basis Dimension        Dim             ....   30

ORBITAL ENERGIES
----------------

  NO   OCC          E(Eh)            E(eV)
   0   2.0000     -11.212596      -305.1102
   1   2.0000     -11.211581      -305.0826
   2   2.0000      -1.036423       -28.2025
   3   2.0000      -0.880620       -23.9629
   4   2.0000      -0.654199       -17.8017
   5   2.0000      -0.561338       -15.2748
   6   2.0000      -0.528264       -14.3748
   7   2.0000      -0.498263       -13.5584
   8   2.0000      -0.375167       -10.2088
   9   0.0000       0.227038         6.1780
  10   0.0000       0.260869         7.0986
  11   0.0000       0.283393         7.7115
  12   0.0000       0.307150         8.3580
  13   0.0000       0.359361         9.7787

MULLIKEN ATOMIC CHARGES
-----------------------
   0 C :   -0.451155
   1 C :   -0.486989
   2 H :    0.153819
   3 H :    0.145724
   4 H :    0.156423
   5 H :    0.158432
   6 H :    0.122097
   7 H :    0.201649
Sum of atomic charges:   -0.0000000

LOEWDIN ATOMIC CHARGES
----------------------
   0 C :   -0.313199
   1 C :   -0.441709
   2 H :    0.108913
   3 H :    0.100978
   4 H :    0.103846
   5 H :    0.168258
   6 H :    0.129253
   7 H :    0.143659

  Mayer bond orders larger than 0.1
B(  0-C ,  1-C ) :   0.9340 B(  0-C ,  2-H ) :   0.9668 B(  0-C ,  3-H ) :   0.9632
B(  0-C ,  4-H ) :   0.9596 B(  1-C ,  5-H ) :   0.9284 B(  1-C ,  6-H ) :   0.9060
B(  1-C ,  7-H ) :   0.9570

FINAL SINGLE POINT ENERGY       -79.081451406063

DIPOLE MOMENT
-------------
                                X             Y             Z
Electronic contribution:      0.06625       0.24091       0.34715
Nuclear contribution   :      0.00000      -0.37886      -0.65621
                        -----------------------------------------
Total Dipole Moment    :      0.06625      -0.13796      -0.30906
                        -----------------------------------------
Magnitude (a.u.)       :      0.34488
Magnitude (Debye)      :      0.87660

                             ****ORCA TERMINATED NORMALLY****
TOTAL RUN TIME: 0 days 0 hours 0 minutes 1 seconds 123 msec
