                         Program Version 4.0.1.2 - RELEASE -
|  1> !HF RHF 6-31G
|  2>     * int 0 1
|  3>     C 0 0 0 0 0 0
|  4>     C 1 0 0 1.60986 0 0
|  5>     H 1 2 0 1.08439 111.2 0
|  6>     H 1 2 3 1.08439 111.2 120
|  7>     H 1 2 3 1.08439 111.2 -120
|  8>     H 2 1 3 1.08439 111.2 180
|  9>     H 2 1 5 1.08439 111.2 120
| 10>     H 2 1 5 1.08439 111.2 240
| 11>     *
| 12>
| 13>
| 14>                          ****END OF INPUT****

CARTESIAN COORDINATES (ANGSTROEM)
---------------------------------
  C      0.000000    0.000000    0.000000
  C      1.609860    0.000000    0.000000
  H     -0.392142    1.011003    0.000000
  H     -0.392142   -0.505501   -0.875554
  H     -0.392142   -0.505501    0.875554
  H      2.002002   -1.011003    0.000000
  H      2.002002   -0.505501   -0.875554
  H      2.002002    1.011003   -0.000000

 Total Charge           Charge          ....    0
 Multiplicity           Mult            ....    1
 Number of Electrons    NEL             ....   18
 Basis Dimension        Dim             ....   30

ORBITAL ENERGIES
----------------

  NO   OCC          E(Eh)            E(eV)
   0   2.0000     -11.217402      -305.2410
   1   2.0000     -11.216778      -305.2241
   2   2.0000      -1.024816       -27.8866
   3   2.0000      -0.884670       -24.0731
   4   2.0000      -0.649453       -17.6725
   5   2.0000      -0.556912       -15.1543
   6   2.0000      -0.527711       -14.3598
   7   2.0000      -0.490236       -13.3400
   8   2.0000      -0.378659       -10.3038
   9   0.0000       0.227288         6.1848
  10   0.0000       0.263993         7.1836
  11   0.0000       0.279503         7.6057
  12   0.0000       0.309980         8.4350
  13   0.0000       0.354336         9.6420

MULLIKEN ATOMIC CHARGES
-----------------------
   0 C :   -0.450063
   1 C :   -0.486425
   2 H :    0.153957
   3 H :    0.146464
   4 H :    0.157043
   5 H :    0.158380
   6 H :    0.119955
   7 H :    0.200688
Sum of atomic charges:   -0.0000000

LOEWDIN ATOMIC CHARGES
----------------------
   0 C :   -0.313722
   1 C :   -0.444224
   2 H :    0.108953
   3 H :    0.101639
   4 H :    0.105052
   5 H :    0.169267
   6 H :    0.129259
   7 H :    0.143777

  Mayer bond orders larger than 0.1
B(  0-C ,  1-C ) :   0.9442 B(  0-C ,  2-H ) :   0.9641 B(  0-C ,  3-H ) :   0.9604
B(  0-C ,  4-H ) :   0.9578 B(  1-C ,  5-H ) :   0.9260 B(  1-C ,  6-H ) :   0.9045
B(  1-C ,  7-H ) :   0.9544

FINAL SINGLE POINT ENERGY       -79.078786992554

DIPOLE MOMENT
-------------
                                X             Y             Z
Electronic contribution:      0.06043       0.24148       0.34832
Nuclear contribution   :      0.00000      -0.37886      -0.65621
                        -----------------------------------------
Total Dipole Moment    :      0.06043      -0.13738      -0.30789
                        -----------------------------------------
Magnitude (a.u.)       :      0.34252
Magnitude (Debye)      :      0.87062

                             ****ORCA TERMINATED NORMALLY****
TOTAL RUN TIME: 0 days 0 hours 0 minutes 1 seconds 85 msec
