                         Program Version 4.0.1.2 - RELEASE -
|  1> !HF RHF 6-31G
|  2>     * int 0 1
|  3>     C 0 0 0 0 0 0
|  4>     C 1 0 0 1.62986 0 0
|  5>     H 1 2 0 1.08439 111.2 0
|  6>     H 1 2 3 1.08439 111.2 120
|  7>     H 1 2 3 1.08439 111.2 -120
|  8>     H 2 1 3 1.08439 111.2 180
|  9>     H 2 1 5 1.08439 111.2 120
| 10>     H 2 1 5 1.08439 111.2 240
| 11>     *
| 12>
| 13>
| 14>                          ****END OF INPUT****

CARTESIAN COORDINATES (ANGSTROEM)
---------------------------------
  C      0.000000    0.000000    0.000000
  C      1.629860    0.000000    0.000000
  H     -0.392142    1.011003    0.000000
  H     -0.392142   -0.505501   -0.875554
  H     -0.392142   -0.505501    0.875554
  H      2.022002   -1.011003    0.000000
  H      2.022002   -0.505501   -0.875554
  H      2.022002    1.011003   -0.000000

 Total Charge           Charge          ....    0
 Multiplicity           Mult            ....    1
 Number of Electrons    NEL             ....   18
 Basis Dimension        Dim             ....   30

ORBITAL ENERGIES
----------------

  NO   OCC          E(Eh)            E(eV)
   0   2.0000     -11.218970      -305.2837
   1   2.0000     -11.218464      -305.2699
   2   2.0000      -1.021336       -27.7920
   3   2.0000      -0.885965       -24.1083
   4   2.0000      -0.648060       -17.6346
   5   2.0000      -0.555673       -15.1206
   6   2.0000      -0.528074       -14.3696
   7   2.0000      -0.486906       -13.2494
   8   2.0000      -0.379677       -10.3315
   9   0.0000       0.227363         6.1869
  10   0.0000       0.264951         7.2097
  11   0.0000       0.277992         7.5646
  12   0.0000       0.310872         8.4593
  13   0.0000       0.352239         9.5849

MULLIKEN ATOMIC CHARGES
-----------------------
   0 C :   -0.449637
   1 C :   -0.486095
   2 H :    0.153960
   3 H :    0.146655
   4 H :    0.157175
   5 H :    0.158342
   6 H :    0.119233
   7 H :    0.200368
Sum of atomic charges:   -0.0000000

LOEWDIN ATOMIC CHARGES
----------------------
   0 C :   -0.313842
   1 C :   -0.445000
   2 H :    0.108963
   3 H :    0.101843
   4 H :    0.105406
   5 H :    0.169575
   6 H :    0.129232
   7 H :    0.143823

  Mayer bond orders larger than 0.1
B(  0-C ,  1-C ) :   0.9473 B(  0-C ,  2-H ) :   0.9632 B(  0-C ,  3-H ) :   0.9595
B(  0-C ,  4-H ) :   0.9573 B(  1-C ,  5-H ) :   0.9252 B(  1-C ,  6-H ) :   0.9040
B(  1-C ,  7-H ) :   0.9535

FINAL SINGLE POINT ENERGY       -79.077218678009

DIPOLE MOMENT
-------------
                                X             Y             Z
Electronic contribution:      0.05856       0.24172       0.34863
Nuclear contribution   :      0.00000      -0.37886      -0.65621
                        -----------------------------------------
Total Dipole Moment    :      0.05856      -0.13714      -0.30758
                        -----------------------------------------
Magnitude (a.u.)       :      0.34182
Magnitude (Debye)      :      0.86885

                             ****ORCA TERMINATED NORMALLY****
TOTAL RUN TIME: 0 days 0 hours 0 minutes 1 seconds 93 msec
