                         Program Version 4.0.1.2 - RELEASE -
|  1> !HF RHF 6-31G
|  2>     * int 0 1
|  3>     C 0 0 0 0 0 0
|  4>     C 1 0 0 1.64986 0 0
|  5>     H 1 2 0 1.08439 111.2 0
|  6>     H 1 2 3 1.08439 111.2 120
|  7>     H 1 2 3 1.08439 111.2 -120
|  8>     H 2 1 3 1.08439 111.2 180
|  9>     H 2 1 5 1.08439 111.2 120
| 10>     H 2 1 5 1.08439 111.2 240
| 11>     *
| 12>
| 13>
| 14>                          ****END OF INPUT****

CARTESIAN COORDINATES (ANGSTROEM)
---------------------------------
  C      0.000000    0.000000    0.000000
  C      1.649860    0.000000    0.000000
  H     -0.392142    1.011003    0.000000
  H     -0.392142   -0.505501   -0.875554
  H     -0.392142   -0.505501    0.875554
  H      2.042002   -1.011003    0.000000
  H      2.042002   -0.505501   -0.875554
  H      2.042002    1.011003   -0.000000

 Total Charge           Charge          ....    0
 Multiplicity           Mult            ....    1
 Number of Electrons    NEL             ....   18
 Basis Dimension        Dim             ....   30

ORBITAL ENERGIES
----------------

  NO   OCC          E(Eh)            E(eV)
   0   2.0000     -11.220521      -305.3259
   1   2.0000     -11.220118      -305.3149
   2   2.0000      -1.018040       -27.7023
   3   2.0000      -0.887231       -24.1428
   4   2.0000      -0.646755       -17.5991
   5   2.0000      -0.554540       -15.0898
   6   2.0000      -0.528583       -14.3835
   7   2.0000      -0.483392       -13.1538
   8   2.0000      -0.380625       -10.3573
   9   0.0000       0.227429         6.1887
  10   0.0000       0.265859         7.2344
  11   0.0000       0.276366         7.5203
  12   0.0000       0.311736         8.4828
  13   0.0000       0.349855         9.5200

MULLIKEN ATOMIC CHARGES
-----------------------
   0 C :   -0.449175
   1 C :   -0.485697
   2 H :    0.153941
   3 H :    0.146817
   4 H :    0.157269
   5 H :    0.158292
   6 H :    0.118506
   7 H :    0.200047
Sum of atomic charges:    0.0000000

LOEWDIN ATOMIC CHARGES
----------------------
   0 C :   -0.313935
   1 C :   -0.445744
   2 H :    0.108971
   3 H :    0.102039
   4 H :    0.105737
   5 H :    0.169869
   6 H :    0.129191
   7 H :    0.143872

  Mayer bond orders larger than 0.1
B(  0-C ,  1-C ) :   0.9503 B(  0-C ,  2-H ) :   0.9625 B(  0-C ,  3-H ) :   0.9588
B(  0-C ,  4-H ) :   0.9568 B(  1-C ,  5-H ) :   0.9245 B(  1-C ,  6-H ) :   0.9036
B(  1-C ,  7-H ) :   0.9527

FINAL SINGLE POINT ENERGY       -79.075365975169

DIPOLE MOMENT
-------------
                                X             Y             Z
Electronic contribution:      0.05674       0.24198       0.34890
Nuclear contribution   :      0.00000      -0.37886      -0.65621
                        -----------------------------------------
Total Dipole Moment    :      0.05674      -0.13688      -0.30731
                        -----------------------------------------
Magnitude (a.u.)       :      0.34117
Magnitude (Debye)      :      0.86718

                             ****ORCA TERMINATED NORMALLY****
TOTAL RUN TIME: 0 days 0 hours 0 minutes 1 seconds 34 msec
