                         Program Version 4.0.1.2 - RELEASE -
|  1> !HF RHF 6-31G
|  2>     * int 0 1
|  3>     C 0 0 0 0 0 0
|  4>     C 1 0 0 1.66986 0 0
|  5>     H 1 2 0 1.08439 111.2 0
|  6>     H 1 2 3 1.08439 111.2 120
|  7>     H 1 2 3 1.08439 111.2 -120
|  8>     H 2 1 3 1.08439 111.2 180
|  9>     H 2 1 5 1.08439 111.2 120
| 10>     H 2 1 5 1.08439 111.2 240
| 11>     *
| 12>
| 13>
| 14>                          ****END OF INPUT****

CARTESIAN COORDINATES (ANGSTROEM)
---------------------------------
  C      0.000000    0.000000    0.000000
  C      1.669860    0.000000    0.000000
  H     -0.392142    1.011003    0.000000
  H     -0.392142   -0.505501   -0.875554
  H     -0.392142   -0.505501    0.875554
  H      2.062002   -1.011003    0.000000
  H      2.062002   -0.505501   -0.875554
  H      2.062002    1.011003   -0.000000

 Total Charge           Charge          ....    0
 Multiplicity           Mult            ....    1
 Number of Electrons    NEL             ....   18
 Basis Dimension        Dim             ....   30

ORBITAL ENERGIES
----------------

  NO   OCC          E(Eh)            E(eV)
   0   2.0000     -11.222062      -305.3678
   1   2.0000     -11.221731      -305.3588
   2   2.0000      -1.014921       -27.6174
   3   2.0000      -0.888467       -24.1764
   4   2.0000      -0.645536       -17.5659
   5   2.0000      -0.553505       -15.0616
   6   2.0000      -0.529187       -14.3999
   7   2.0000      -0.479755       -13.0548
   8   2.0000      -0.381504       -10.3812
   9   0.0000       0.227485         6.1902
  10   0.0000       0.266697         7.2572
  11   0.0000       0.274630         7.4731
  12   0.0000       0.312569         8.5054
  13   0.0000       0.347155         9.4466

MULLIKEN ATOMIC CHARGES
-----------------------
   0 C :   -0.448674
   1 C :   -0.485233
   2 H :    0.153899
   3 H :    0.146950
   4 H :    0.157328
   5 H :    0.158232
   6 H :    0.117772
   7 H :    0.199725
Sum of atomic charges:   -0.0000000

LOEWDIN ATOMIC CHARGES
----------------------
   0 C :   -0.314001
   1 C :   -0.446455
   2 H :    0.108975
   3 H :    0.102225
   4 H :    0.106047
   5 H :    0.170150
   6 H :    0.129136
   7 H :    0.143922

  Mayer bond orders larger than 0.1
B(  0-C ,  1-C ) :   0.9530 B(  0-C ,  2-H ) :   0.9617 B(  0-C ,  3-H ) :   0.9580
B(  0-C ,  4-H ) :   0.9563 B(  1-C ,  5-H ) :   0.9237 B(  1-C ,  6-H ) :   0.9033
B(  1-C ,  7-H ) :   0.9519

FINAL SINGLE POINT ENERGY       -79.073257921720

DIPOLE MOMENT
-------------
                                X             Y             Z
Electronic contribution:      0.05495       0.24226       0.34913
Nuclear contribution   :      0.00000      -0.37886      -0.65621
                        -----------------------------------------
Total Dipole Moment    :      0.05495      -0.13661      -0.30708
                        -----------------------------------------
Magnitude (a.u.)       :      0.34055
Magnitude (Debye)      :      0.86562

                             ****ORCA TERMINATED NORMALLY****
TOTAL RUN TIME: 0 days 0 hours 0 minutes 1 seconds 125 msec
