                         Program Version 4.0.1.2 - RELEASE -
|  1> !HF RHF 6-31G
|  2>     * int 0 1
|  3>     C 0 0 0 0 0 0
|  4>     C 1 0 0 1.68986 0 0
|  5>     H 1 2 0 1.08439 111.2 0
|  6>     H 1 2 3 1.08439 111.2 120
|  7>     H 1 2 3 1.08439 111.2 -120
|  8>     H 2 1 3 1.08439 111.2 180
|  9>     H 2 1 5 1.08439 111.2 120
| 10>     H 2 1 5 1.08439 111.2 240
| 11>     *
| 12>
| 13>
| 14>                          ****END OF INPUT****

CARTESIAN COORDINATES (ANGSTROEM)
---------------------------------
  C      0.000000    0.000000    0.000000
  C      1.689860    0.000000    0.000000
  H     -0.392142    1.011003    0.000000
  H     -0.392142   -0.505501   -0.875554
  H     -0.392142   -0.505501    0.875554
  H      2.082002   -1.011003    0.000000
  H      2.082002   -0.505501   -0.875554
  H      2.082002    1.011003   -0.000000

 Total Charge           Charge          ....    0
 Multiplicity           Mult            ....    1
 Number of Electrons    NEL             ....   18
 Basis Dimension        Dim             ....   30

ORBITAL ENERGIES
----------------

  NO   OCC          E(Eh)            E(eV)
   0   2.0000     -11.223600      -305.4097
   1   2.0000     -11.223291      -305.4013
   2   2.0000      -1.011971       -27.5371
   3   2.0000      -0.889673       -24.2092
   4   2.0000      -0.644398       -17.5350
   5   2.0000      -0.552563       -15.0360
   6   2.0000      -0.529851       -14.4180
   7   2.0000      -0.476037       -12.9536
   8   2.0000      -0.382313       -10.4033
   9   0.0000       0.227526         6.1913
  10   0.0000       0.267409         7.2766
  11   0.0000       0.272830         7.4241
  12   0.0000       0.313371         8.5273
  13   0.0000       0.344143         9.3646

MULLIKEN ATOMIC CHARGES
-----------------------
   0 C :   -0.448133
   1 C :   -0.484704
   2 H :    0.153836
   3 H :    0.147056
   4 H :    0.157352
   5 H :    0.158160
   6 H :    0.117033
   7 H :    0.199400
Sum of atomic charges:   -0.0000000

LOEWDIN ATOMIC CHARGES
----------------------
   0 C :   -0.314042
   1 C :   -0.447135
   2 H :    0.108977
   3 H :    0.102403
   4 H :    0.106336
   5 H :    0.170418
   6 H :    0.129068
   7 H :    0.143974

  Mayer bond orders larger than 0.1
B(  0-C ,  1-C ) :   0.9557 B(  0-C ,  2-H ) :   0.9610 B(  0-C ,  3-H ) :   0.9573
B(  0-C ,  4-H ) :   0.9559 B(  1-C ,  5-H ) :   0.9230 B(  1-C ,  6-H ) :   0.9030
B(  1-C ,  7-H ) :   0.9511

FINAL SINGLE POINT ENERGY       -79.070920986181

DIPOLE MOMENT
-------------
                                X             Y             Z
Electronic contribution:      0.05320       0.24255       0.34933
Nuclear contribution   :      0.00000      -0.37886      -0.65621
                        -----------------------------------------
Total Dipole Moment    :      0.05320      -0.13631      -0.30688
                        -----------------------------------------
Magnitude (a.u.)       :      0.33998
Magnitude (Debye)      :      0.86415

                             ****ORCA TERMINATED NORMALLY****
TOTAL RUN TIME: 0 days 0 hours 0 minutes 1 seconds 124 msec
