                         Program Version 4.0.1.2 - RELEASE -
|  1> !HF RHF 6-31G
|  2>     * int 0 1
|  3>     C 0 0 0 0 0 0
|  4>     C 1 0 0 1.70986 0 0
|  5>     H 1 2 0 1.08439 111.2 0
|  6>     H 1 2 3 1.08439 111.2 120
|  7>     H 1 2 3 1.08439 111.2 -120
|  8>     H 2 1 3 1.08439 111.2 180
|  9>     H 2 1 5 1.08439 111.2 120
| 10>     H 2 1 5 1.08439 111.2 240
| 11>     *
| 12>
| 13>
| 14>                          ****END OF INPUT****

CARTESIAN COORDINATES (ANGSTROEM)
---------------------------------
  C      0.000000    0.000000    0.000000
  C      1.709860    0.000000    0.000000
  H     -0.392142    1.011003    0.000000
  H     -0.392142   -0.505501   -0.875554
  H     -0.392142   -0.505501    0.875554
  H      2.102002   -1.011003    0.000000
  H      2.102002   -0.505501   -0.875554
  H      2.102002    1.011003   -0.000000

 Total Charge           Charge          ....    0
 Multiplicity           Mult            ....    1
 Number of Electrons    NEL             ....   18
 Basis Dimension        Dim             ....   30

ORBITAL ENERGIES
----------------

  NO   OCC          E(Eh)            E(eV)
   0   2.0000     -11.225139      -305.4516
   1   2.0000     -11.224793      -305.4421
   2   2.0000      -1.009185       -27.4613
   3   2.0000      -0.890849       -24.2412
   4   2.0000      -0.643339       -17.5061
   5   2.0000      -0.551706       -15.0127
   6   2.0000      -0.530550       -14.4370
   7   2.0000      -0.472273       -12.8512
   8   2.0000      -0.383055       -10.4234
   9   0.0000       0.227548         6.1919
  10   0.0000       0.267745         7.2857
  11   0.0000       0.271200         7.3797
  12   0.0000       0.314137         8.5481
  13   0.0000       0.340867         9.2755

MULLIKEN ATOMIC CHARGES
-----------------------
   0 C :   -0.447552
   1 C :   -0.484114
   2 H :    0.153750
   3 H :    0.147134
   4 H :    0.157343
   5 H :    0.158078
   6 H :    0.116288
   7 H :    0.199073
Sum of atomic charges:   -0.0000000

LOEWDIN ATOMIC CHARGES
----------------------
   0 C :   -0.314059
   1 C :   -0.447782
   2 H :    0.108976
   3 H :    0.102572
   4 H :    0.106605
   5 H :    0.170674
   6 H :    0.128987
   7 H :    0.144027

  Mayer bond orders larger than 0.1
B(  0-C ,  1-C ) :   0.9581 B(  0-C ,  2-H ) :   0.9603 B(  0-C ,  3-H ) :   0.9567
B(  0-C ,  4-H ) :   0.9554 B(  1-C ,  5-H ) :   0.9223 B(  1-C ,  6-H ) :   0.9027
B(  1-C ,  7-H ) :   0.9504

FINAL SINGLE POINT ENERGY       -79.068379282608

DIPOLE MOMENT
-------------
                                X             Y             Z
Electronic contribution:      0.05148       0.24286       0.34950
Nuclear contribution   :      0.00000      -0.37886      -0.65621
                        -----------------------------------------
Total Dipole Moment    :      0.05148      -0.13600      -0.30671
                        -----------------------------------------
Magnitude (a.u.)       :      0.33944
Magnitude (Debye)      :      0.86278

                             ****ORCA TERMINATED NORMALLY****
TOTAL RUN TIME: 0 days 0 hours 0 minutes 1 seconds 126 msec
