                         Program Version 4.0.1.2 - RELEASE -
|  1> !HF RHF 6-31G
|  2>     * int 0 1
|  3>     C 0 0 0 0 0 0
|  4>     C 1 0 0 1.72986 0 0
|  5>     H 1 2 0 1.08439 111.2 0
|  6>     H 1 2 3 1.08439 111.2 120
|  7>     H 1 2 3 1.08439 111.2 -120
|  8>     H 2 1 3 1.08439 111.2 180
|  9>     H 2 1 5 1.08439 111.2 120
| 10>     H 2 1 5 1.08439 111.2 240
| 11>     *
| 12>
| 13>
| 14>                          ****END OF INPUT****

CARTESIAN COORDINATES (ANGSTROEM)
---------------------------------
  C      0.000000    0.000000    0.000000
  C      1.729860    0.000000    0.000000
  H     -0.392142    1.011003    0.000000
  H     -0.392142   -0.505501   -0.875554
  H     -0.392142   -0.505501    0.875554
  H      2.122002   -1.011003    0.000000
  H      2.122002   -0.505501   -0.875554
  H      2.122002    1.011003   -0.000000

 Total Charge           Charge          ....    0
 Multiplicity           Mult            ....    1
 Number of Electrons    NEL             ....   18
 Basis Dimension        Dim             ....   30

ORBITAL ENERGIES
----------------

  NO   OCC          E(Eh)            E(eV)
   0   2.0000     -11.226669      -305.4932
   1   2.0000     -11.226242      -305.4816
   2   2.0000      -1.006555       -27.3898
   3   2.0000      -0.891994       -24.2724
   4   2.0000      -0.642355       -17.4794
   5   2.0000      -0.550930       -14.9916
   6   2.0000      -0.531267       -14.4565
   7   2.0000      -0.468490       -12.7482
   8   2.0000      -0.383727       -10.4418
   9   0.0000       0.227545         6.1918
  10   0.0000       0.266901         7.2628
  11   0.0000       0.270533         7.3616
  12   0.0000       0.314864         8.5679
  13   0.0000       0.337412         9.1815

MULLIKEN ATOMIC CHARGES
-----------------------
   0 C :   -0.446931
   1 C :   -0.483465
   2 H :    0.153644
   3 H :    0.147186
   4 H :    0.157301
   5 H :    0.157985
   6 H :    0.115537
   7 H :    0.198744
Sum of atomic charges:   -0.0000000

LOEWDIN ATOMIC CHARGES
----------------------
   0 C :   -0.314053
   1 C :   -0.448398
   2 H :    0.108972
   3 H :    0.102733
   4 H :    0.106854
   5 H :    0.170917
   6 H :    0.128894
   7 H :    0.144081

  Mayer bond orders larger than 0.1
B(  0-C ,  1-C ) :   0.9604 B(  0-C ,  2-H ) :   0.9597 B(  0-C ,  3-H ) :   0.9561
B(  0-C ,  4-H ) :   0.9551 B(  1-C ,  5-H ) :   0.9216 B(  1-C ,  6-H ) :   0.9025
B(  1-C ,  7-H ) :   0.9497

FINAL SINGLE POINT ENERGY       -79.065654774471

DIPOLE MOMENT
-------------
                                X             Y             Z
Electronic contribution:      0.04981       0.24318       0.34964
Nuclear contribution   :      0.00000      -0.37886      -0.65621
                        -----------------------------------------
Total Dipole Moment    :      0.04981      -0.13568      -0.30657
                        -----------------------------------------
Magnitude (a.u.)       :      0.33893
Magnitude (Debye)      :      0.86150

                             ****ORCA TERMINATED NORMALLY****
TOTAL RUN TIME: 0 days 0 hours 0 minutes 1 seconds 50 msec
