                         Program Version 4.0.1.2 - RELEASE -
|  1> !HF RHF 6-31G
|  2>     * int 0 1
|  3>     C 0 0 0 0 0 0
|  4>     C 1 0 0 0.52986 0 0
|  5>     H 1 2 0 1.08439 111.2 0
|  6>     H 1 2 3 1.08439 111.2 120
|  7>     H 1 2 3 1.08439 111.2 -120
|  8>     H 2 1 3 1.08439 111.2 180
|  9>     H 2 1 5 1.08439 111.2 120
| 10>     H 2 1 5 1.08439 111.2 240
| 11>     *
| 12>
| 13>
| 14>                          ****END OF INPUT****

CARTESIAN COORDINATES (ANGSTROEM)
---------------------------------
  C      0.000000    0.000000    0.000000
  C      0.529860    0.000000    0.000000
  H     -0.392142    1.011003    0.000000
  H     -0.392142   -0.505501   -0.875554
  H     -0.392142   -0.505501    0.875554
  H      0.922002   -1.011003    0.000000
  H      0.922002   -0.505501   -0.875554
  H      0.922002    1.011003   -0.000000

 Total Charge           Charge          ....    0
 Multiplicity           Mult            ....    1
 Number of Electrons    NEL             ....   18
 Basis Dimension        Dim             ....   30

ORBITAL ENERGIES
----------------

  NO   OCC          E(Eh)            E(eV)
   0   2.0000     -12.368782      -336.5717
   1   2.0000     -11.556077      -314.4568
   2   2.0000      -1.340359       -36.4730
   3   2.0000      -1.207290       -32.8520
   4   2.0000      -1.113801       -30.3081
   5   2.0000      -0.774963       -21.0878
   6   2.0000      -0.376932       -10.2569
   7   2.0000      -0.324669        -8.8347
   8   2.0000      -0.221256        -6.0207
   9   0.0000       0.034955         0.9512
  10   0.0000       0.115811         3.1514
  11   0.0000       0.169604         4.6152
  12   0.0000       0.287989         7.8366
  13   0.0000       0.373106        10.1527

MULLIKEN ATOMIC CHARGES
-----------------------
   0 C :   -0.801527
   1 C :    0.603544
   2 H :    0.114170
   3 H :    0.017533
   4 H :   -0.186257
   5 H :    0.125091
   6 H :    0.086212
   7 H :    0.041235
Sum of atomic charges:   -0.0000000

LOEWDIN ATOMIC CHARGES
----------------------
   0 C :   -0.299512
   1 C :   -0.266200
   2 H :    0.132635
   3 H :    0.096188
   4 H :   -0.100410
   5 H :    0.184278
   6 H :    0.136564
   7 H :    0.116457

  Mayer bond orders larger than 0.1
B(  0-C ,  1-C ) :   0.4300 B(  0-C ,  2-H ) :   0.8898 B(  0-C ,  3-H ) :   1.2908
B(  0-C ,  4-H ) :   0.9248 B(  0-C ,  6-H ) :  -0.1694 B(  1-C ,  2-H ) :  -0.1925
B(  1-C ,  3-H ) :  -0.5269 B(  1-C ,  4-H ) :  -0.2410 B(  1-C ,  5-H ) :   0.6000
B(  1-C ,  6-H ) :   0.7370 B(  1-C ,  7-H ) :   0.8769 B(  2-H ,  5-H ) :   0.1036
B(  3-H ,  7-H ) :   0.1484 B(  4-H ,  6-H ) :   0.1184 B(  5-H ,  6-H ) :   0.2894

FINAL SINGLE POINT ENERGY       -73.376057637917

DIPOLE MOMENT
-------------
                                X             Y             Z
Electronic contribution:      0.56036       0.40728       0.22516
Nuclear contribution   :     -0.00000      -0.37886      -0.65621
                        -----------------------------------------
Total Dipole Moment    :      0.56036       0.02841      -0.43105
                        -----------------------------------------
Magnitude (a.u.)       :      0.70754
Magnitude (Debye)      :      1.79842

                             ****ORCA TERMINATED NORMALLY****
TOTAL RUN TIME: 0 days 0 hours 0 minutes 7 seconds 289 msec
