                         Program Version 4.0.1.2 - RELEASE -
|  1> !HF RHF 6-31G
|  2>     * int 0 1
|  3>     C 0 0 0 0 0 0
|  4>     C 1 0 0 0.62986 0 0
|  5>     H 1 2 0 1.08439 111.2 0
|  6>     H 1 2 3 1.08439 111.2 120
|  7>     H 1 2 3 1.08439 111.2 -120
|  8>     H 2 1 3 1.08439 111.2 180
|  9>     H 2 1 5 1.08439 111.2 120
| 10>     H 2 1 5 1.08439 111.2 240
| 11>     *
| 12>
| 13>
| 14>                          ****END OF INPUT****

CARTESIAN COORDINATES (ANGSTROEM)
---------------------------------
  C      0.000000    0.000000    0.000000
  C      0.629860    0.000000    0.000000
  H     -0.392142    1.011003    0.000000
  H     -0.392142   -0.505501   -0.875554
  H     -0.392142   -0.505501    0.875554
  H      1.022002   -1.011003    0.000000
  H      1.022002   -0.505501   -0.875554
  H      1.022002    1.011003   -0.000000

 Total Charge           Charge          ....    0
 Multiplicity           Mult            ....    1
 Number of Electrons    NEL             ....   18
 Basis Dimension        Dim             ....   30

ORBITAL ENERGIES
----------------

  NO   OCC          E(Eh)            E(eV)
   0   2.0000     -11.685105      -317.9679
   1   2.0000     -11.337310      -308.5039
   2   2.0000      -1.274624       -34.6843
   3   2.0000      -1.026192       -27.9241
   4   2.0000      -0.929736       -25.2994
   5   2.0000      -0.746354       -20.3093
   6   2.0000      -0.524148       -14.2628
   7   2.0000      -0.349395        -9.5075
   8   2.0000      -0.217072        -5.9068
   9   0.0000       0.105390         2.8678
  10   0.0000       0.164984         4.4895
  11   0.0000       0.201797         5.4912
  12   0.0000       0.311112         8.4658
  13   0.0000       0.394731        10.7412

MULLIKEN ATOMIC CHARGES
-----------------------
   0 C :   -0.671369
   1 C :    0.073811
   2 H :    0.141963
   3 H :    0.073872
   4 H :   -0.037879
   5 H :    0.094290
   6 H :    0.199516
   7 H :    0.125796
Sum of atomic charges:   -0.0000000

LOEWDIN ATOMIC CHARGES
----------------------
   0 C :   -0.284895
   1 C :   -0.320539
   2 H :    0.127617
   3 H :    0.083709
   4 H :   -0.029032
   5 H :    0.132092
   6 H :    0.150578
   7 H :    0.140470

  Mayer bond orders larger than 0.1
B(  0-C ,  1-C ) :   0.7157 B(  0-C ,  2-H ) :   0.9680 B(  0-C ,  3-H ) :   1.1218
B(  0-C ,  4-H ) :   0.8738 B(  0-C ,  6-H ) :  -0.1737 B(  1-C ,  2-H ) :  -0.1368
B(  1-C ,  3-H ) :  -0.3049 B(  1-C ,  5-H ) :   0.7513 B(  1-C ,  6-H ) :   0.8700
B(  1-C ,  7-H ) :   0.9394

FINAL SINGLE POINT ENERGY       -75.600038681442

DIPOLE MOMENT
-------------
                                X             Y             Z
Electronic contribution:      0.43095       0.38597       0.11347
Nuclear contribution   :     -0.00000      -0.37886      -0.65621
                        -----------------------------------------
Total Dipole Moment    :      0.43095       0.00711      -0.54274
                        -----------------------------------------
Magnitude (a.u.)       :      0.69306
Magnitude (Debye)      :      1.76162

                             ****ORCA TERMINATED NORMALLY****
TOTAL RUN TIME: 0 days 0 hours 0 minutes 4 seconds 336 msec
