                         Program Version 4.0.1.2 - RELEASE -
|  1> !HF RHF 6-31G
|  2>     * int 0 1
|  3>     C 0 0 0 0 0 0
|  4>     C 1 0 0 0.72986 0 0
|  5>     H 1 2 0 1.08439 111.2 0
|  6>     H 1 2 3 1.08439 111.2 120
|  7>     H 1 2 3 1.08439 111.2 -120
|  8>     H 2 1 3 1.08439 111.2 180
|  9>     H 2 1 5 1.08439 111.2 120
| 10>     H 2 1 5 1.08439 111.2 240
| 11>     *
| 12>
| 13>
| 14>                          ****END OF INPUT****

CARTESIAN COORDINATES (ANGSTROEM)
---------------------------------
  C      0.000000    0.000000    0.000000
  C      0.729860    0.000000    0.000000
  H     -0.392142    1.011003    0.000000
  H     -0.392142   -0.505501   -0.875554
  H     -0.392142   -0.505501    0.875554
  H      1.122002   -1.011003    0.000000
  H      1.122002   -0.505501   -0.875554
  H      1.122002    1.011003   -0.000000

 Total Charge           Charge          ....    0
 Multiplicity           Mult            ....    1
 Number of Electrons    NEL             ....   18
 Basis Dimension        Dim             ....   30

ORBITAL ENERGIES
----------------

  NO   OCC          E(Eh)            E(eV)
   0   2.0000     -11.405954      -310.3718
   1   2.0000     -11.258518      -306.3599
   2   2.0000      -1.284117       -34.9426
   3   2.0000      -0.939511       -25.5654
   4   2.0000      -0.839708       -22.8496
   5   2.0000      -0.746780       -20.3209
   6   2.0000      -0.604454       -16.4480
   7   2.0000      -0.374247       -10.1838
   8   2.0000      -0.239494        -6.5170
   9   0.0000       0.145383         3.9561
  10   0.0000       0.195973         5.3327
  11   0.0000       0.216051         5.8790
  12   0.0000       0.313165         8.5217
  13   0.0000       0.396392        10.7864

MULLIKEN ATOMIC CHARGES
-----------------------
   0 C :   -0.581495
   1 C :   -0.164209
   2 H :    0.140222
   3 H :    0.099994
   4 H :    0.039808
   5 H :    0.117067
   6 H :    0.177587
   7 H :    0.171026
Sum of atomic charges:   -0.0000000

LOEWDIN ATOMIC CHARGES
----------------------
   0 C :   -0.280144
   1 C :   -0.349447
   2 H :    0.115094
   3 H :    0.086204
   4 H :    0.015417
   5 H :    0.134702
   6 H :    0.131003
   7 H :    0.147172

  Mayer bond orders larger than 0.1
B(  0-C ,  1-C ) :   0.7951 B(  0-C ,  2-H ) :   0.9872 B(  0-C ,  3-H ) :   1.0613
B(  0-C ,  4-H ) :   0.8975 B(  0-C ,  6-H ) :  -0.1344 B(  1-C ,  2-H ) :  -0.1126
B(  1-C ,  3-H ) :  -0.1999 B(  1-C ,  5-H ) :   0.8238 B(  1-C ,  6-H ) :   0.8923
B(  1-C ,  7-H ) :   0.9537

FINAL SINGLE POINT ENERGY       -76.986925125052

DIPOLE MOMENT
-------------
                                X             Y             Z
Electronic contribution:      0.31942       0.34569       0.20323
Nuclear contribution   :      0.00000      -0.37886      -0.65621
                        -----------------------------------------
Total Dipole Moment    :      0.31942      -0.03317      -0.45298
                        -----------------------------------------
Magnitude (a.u.)       :      0.55527
Magnitude (Debye)      :      1.41138

                             ****ORCA TERMINATED NORMALLY****
TOTAL RUN TIME: 0 days 0 hours 0 minutes 3 seconds 629 msec
