                         Program Version 4.0.1.2 - RELEASE -
|  1> !HF RHF 6-31G
|  2>     * int 0 1
|  3>     C 0 0 0 0 0 0
|  4>     C 1 0 0 0.82986 0 0
|  5>     H 1 2 0 1.08439 111.2 0
|  6>     H 1 2 3 1.08439 111.2 120
|  7>     H 1 2 3 1.08439 111.2 -120
|  8>     H 2 1 3 1.08439 111.2 180
|  9>     H 2 1 5 1.08439 111.2 120
| 10>     H 2 1 5 1.08439 111.2 240
| 11>     *
| 12>
| 13>
| 14>                          ****END OF INPUT****

CARTESIAN COORDINATES (ANGSTROEM)
---------------------------------
  C      0.000000    0.000000    0.000000
  C      0.829860    0.000000    0.000000
  H     -0.392142    1.011003    0.000000
  H     -0.392142   -0.505501   -0.875554
  H     -0.392142   -0.505501    0.875554
  H      1.222002   -1.011003    0.000000
  H      1.222002   -0.505501   -0.875554
  H      1.222002    1.011003   -0.000000

 Total Charge           Charge          ....    0
 Multiplicity           Mult            ....    1
 Number of Electrons    NEL             ....   18
 Basis Dimension        Dim             ....   30

ORBITAL ENERGIES
----------------

  NO   OCC          E(Eh)            E(eV)
   0   2.0000     -11.277576      -306.8784
   1   2.0000     -11.214995      -305.1755
   2   2.0000      -1.281526       -34.8721
   3   2.0000      -0.884172       -24.0595
   4   2.0000      -0.787396       -21.4261
   5   2.0000      -0.732956       -19.9447
   6   2.0000      -0.626506       -17.0481
   7   2.0000      -0.400595       -10.9007
   8   2.0000      -0.264590        -7.1998
   9   0.0000       0.173813         4.7297
  10   0.0000       0.219037         5.9603
  11   0.0000       0.224797         6.1170
  12   0.0000       0.312099         8.4927
  13   0.0000       0.394474        10.7342

MULLIKEN ATOMIC CHARGES
-----------------------
   0 C :   -0.532439
   1 C :   -0.305499
   2 H :    0.143570
   3 H :    0.115079
   4 H :    0.086064
   5 H :    0.135042
   6 H :    0.163948
   7 H :    0.194235
Sum of atomic charges:   -0.0000000

LOEWDIN ATOMIC CHARGES
----------------------
   0 C :   -0.285315
   1 C :   -0.373849
   2 H :    0.111425
   3 H :    0.088724
   4 H :    0.044525
   5 H :    0.141322
   6 H :    0.125167
   7 H :    0.148001

  Mayer bond orders larger than 0.1
B(  0-C ,  1-C ) :   0.8155 B(  0-C ,  2-H ) :   0.9953 B(  0-C ,  3-H ) :   1.0298
B(  0-C ,  4-H ) :   0.9265 B(  0-C ,  6-H ) :  -0.1057 B(  1-C ,  3-H ) :  -0.1381
B(  1-C ,  5-H ) :   0.8712 B(  1-C ,  6-H ) :   0.9090 B(  1-C ,  7-H ) :   0.9585

FINAL SINGLE POINT ENERGY       -77.840020404948

DIPOLE MOMENT
-------------
                                X             Y             Z
Electronic contribution:      0.24233       0.30951       0.25492
Nuclear contribution   :     -0.00000      -0.37886      -0.65621
                        -----------------------------------------
Total Dipole Moment    :      0.24233      -0.06935      -0.40129
                        -----------------------------------------
Magnitude (a.u.)       :      0.47388
Magnitude (Debye)      :      1.20452

                             ****ORCA TERMINATED NORMALLY****
TOTAL RUN TIME: 0 days 0 hours 0 minutes 3 seconds 701 msec
