                         Program Version 4.0.1.2 - RELEASE -
|  1> !HF RHF 6-31G
|  2>     * int 0 1
|  3>     C 0 0 0 0 0 0
|  4>     C 1 0 0 0.92986 0 0
|  5>     H 1 2 0 1.08439 111.2 0
|  6>     H 1 2 3 1.08439 111.2 120
|  7>     H 1 2 3 1.08439 111.2 -120
|  8>     H 2 1 3 1.08439 111.2 180
|  9>     H 2 1 5 1.08439 111.2 120
| 10>     H 2 1 5 1.08439 111.2 240
| 11>     *
| 12>
| 13>
| 14>                          ****END OF INPUT****

CARTESIAN COORDINATES (ANGSTROEM)
---------------------------------
  C      0.000000    0.000000    0.000000
  C      0.929860    0.000000    0.000000
  H     -0.392142    1.011003    0.000000
  H     -0.392142   -0.505501   -0.875554
  H     -0.392142   -0.505501    0.875554
  H      1.322002   -1.011003    0.000000
  H      1.322002   -0.505501   -0.875554
  H      1.322002    1.011003   -0.000000

 Total Charge           Charge          ....    0
 Multiplicity           Mult            ....    1
 Number of Electrons    NEL             ....   18
 Basis Dimension        Dim             ....   30

ORBITAL ENERGIES
----------------

  NO   OCC          E(Eh)            E(eV)
   0   2.0000     -11.218984      -305.2841
   1   2.0000     -11.191872      -304.5463
   2   2.0000      -1.256619       -34.1943
   3   2.0000      -0.855331       -23.2747
   4   2.0000      -0.762636       -20.7524
   5   2.0000      -0.697905       -18.9909
   6   2.0000      -0.624089       -16.9823
   7   2.0000      -0.424999       -11.5648
   8   2.0000      -0.288510        -7.8508
   9   0.0000       0.195212         5.3120
  10   0.0000       0.225741         6.1427
  11   0.0000       0.241395         6.5687
  12   0.0000       0.309838         8.4311
  13   0.0000       0.390874        10.6362

MULLIKEN ATOMIC CHARGES
-----------------------
   0 C :   -0.501979
   1 C :   -0.389104
   2 H :    0.146641
   3 H :    0.124630
   4 H :    0.113827
   5 H :    0.146463
   6 H :    0.154242
   7 H :    0.205280
Sum of atomic charges:   -0.0000000

LOEWDIN ATOMIC CHARGES
----------------------
   0 C :   -0.292149
   1 C :   -0.392447
   2 H :    0.110203
   3 H :    0.091156
   4 H :    0.064046
   5 H :    0.147630
   6 H :    0.124282
   7 H :    0.147280

  Mayer bond orders larger than 0.1
B(  0-C ,  1-C ) :   0.8234 B(  0-C ,  2-H ) :   0.9970 B(  0-C ,  3-H ) :   1.0117
B(  0-C ,  4-H ) :   0.9478 B(  1-C ,  5-H ) :   0.9023 B(  1-C ,  6-H ) :   0.9191
B(  1-C ,  7-H ) :   0.9622

FINAL SINGLE POINT ENERGY       -78.364137018388

DIPOLE MOMENT
-------------
                                X             Y             Z
Electronic contribution:      0.18886       0.28217       0.28603
Nuclear contribution   :     -0.00000      -0.37886      -0.65621
                        -----------------------------------------
Total Dipole Moment    :      0.18886      -0.09669      -0.37018
                        -----------------------------------------
Magnitude (a.u.)       :      0.42667
Magnitude (Debye)      :      1.08451

                             ****ORCA TERMINATED NORMALLY****
TOTAL RUN TIME: 0 days 0 hours 0 minutes 3 seconds 408 msec
