                         Program Version 4.0.1.2 - RELEASE -
|  1> !HF RHF 6-31G
|  2>     * int 0 1
|  3>     C 0 0 0 0 0 0
|  4>     C 1 0 0 1.02986 0 0
|  5>     H 1 2 0 1.08439 111.2 0
|  6>     H 1 2 3 1.08439 111.2 120
|  7>     H 1 2 3 1.08439 111.2 -120
|  8>     H 2 1 3 1.08439 111.2 180
|  9>     H 2 1 5 1.08439 111.2 120
| 10>     H 2 1 5 1.08439 111.2 240
| 11>     *
| 12>
| 13>
| 14>                          ****END OF INPUT****

CARTESIAN COORDINATES (ANGSTROEM)
---------------------------------
  C      0.000000    0.000000    0.000000
  C      1.029860    0.000000    0.000000
  H     -0.392142    1.011003    0.000000
  H     -0.392142   -0.505501   -0.875554
  H     -0.392142   -0.505501    0.875554
  H      1.422002   -1.011003    0.000000
  H      1.422002   -0.505501   -0.875554
  H      1.422002    1.011003   -0.000000

 Total Charge           Charge          ....    0
 Multiplicity           Mult            ....    1
 Number of Electrons    NEL             ....   18
 Basis Dimension        Dim             ....   30

ORBITAL ENERGIES
----------------

  NO   OCC          E(Eh)            E(eV)
   0   2.0000     -11.194589      -304.6203
   1   2.0000     -11.182205      -304.2833
   2   2.0000      -1.217928       -33.1415
   3   2.0000      -0.847601       -23.0644
   4   2.0000      -0.739836       -20.1320
   5   2.0000      -0.663146       -18.0451
   6   2.0000      -0.611093       -16.6287
   7   2.0000      -0.446444       -12.1484
   8   2.0000      -0.309860        -8.4317
   9   0.0000       0.211518         5.7557
  10   0.0000       0.227521         6.1912
  11   0.0000       0.257312         7.0018
  12   0.0000       0.307038         8.3549
  13   0.0000       0.386465        10.5162

MULLIKEN ATOMIC CHARGES
-----------------------
   0 C :   -0.481849
   1 C :   -0.436625
   2 H :    0.148713
   3 H :    0.130842
   4 H :    0.130378
   5 H :    0.152825
   6 H :    0.146519
   7 H :    0.209197
Sum of atomic charges:   -0.0000000

LOEWDIN ATOMIC CHARGES
----------------------
   0 C :   -0.298115
   1 C :   -0.406033
   2 H :    0.109638
   3 H :    0.093244
   4 H :    0.077184
   5 H :    0.152884
   6 H :    0.125026
   7 H :    0.146172

  Mayer bond orders larger than 0.1
B(  0-C ,  1-C ) :   0.8324 B(  0-C ,  2-H ) :   0.9951 B(  0-C ,  3-H ) :   1.0002
B(  0-C ,  4-H ) :   0.9607 B(  1-C ,  5-H ) :   0.9217 B(  1-C ,  6-H ) :   0.9228
B(  1-C ,  7-H ) :   0.9657

FINAL SINGLE POINT ENERGY       -78.683902778763

DIPOLE MOMENT
-------------
                                X             Y             Z
Electronic contribution:      0.15183       0.26361       0.30644
Nuclear contribution   :     -0.00000      -0.37886      -0.65621
                        -----------------------------------------
Total Dipole Moment    :      0.15183      -0.11526      -0.34977
                        -----------------------------------------
Magnitude (a.u.)       :      0.39834
Magnitude (Debye)      :      1.01250

                             ****ORCA TERMINATED NORMALLY****
TOTAL RUN TIME: 0 days 0 hours 0 minutes 3 seconds 309 msec
