                         Program Version 4.0.1.2 - RELEASE -
|  1> !HF RHF 6-31G
|  2>     * int 0 1
|  3>     C 0 0 0 0 0 0
|  4>     C 1 0 0 1.12986 0 0
|  5>     H 1 2 0 1.08439 111.2 0
|  6>     H 1 2 3 1.08439 111.2 120
|  7>     H 1 2 3 1.08439 111.2 -120
|  8>     H 2 1 3 1.08439 111.2 180
|  9>     H 2 1 5 1.08439 111.2 120
| 10>     H 2 1 5 1.08439 111.2 240
| 11>     *
| 12>
| 13>
| 14>                          ****END OF INPUT****

CARTESIAN COORDINATES (ANGSTROEM)
---------------------------------
  C      0.000000    0.000000    0.000000
  C      1.129860    0.000000    0.000000
  H     -0.392142    1.011003    0.000000
  H     -0.392142   -0.505501   -0.875554
  H     -0.392142   -0.505501    0.875554
  H      1.522002   -1.011003    0.000000
  H      1.522002   -0.505501   -0.875554
  H      1.522002    1.011003   -0.000000

 Total Charge           Charge          ....    0
 Multiplicity           Mult            ....    1
 Number of Electrons    NEL             ....   18
 Basis Dimension        Dim             ....   30

ORBITAL ENERGIES
----------------

  NO   OCC          E(Eh)            E(eV)
   0   2.0000     -11.187466      -304.4264
   1   2.0000     -11.181143      -304.2544
   2   2.0000      -1.174682       -31.9647
   3   2.0000      -0.850229       -23.1359
   4   2.0000      -0.717067       -19.5124
   5   2.0000      -0.634221       -17.2580
   6   2.0000      -0.593939       -16.1619
   7   2.0000      -0.464696       -12.6450
   8   2.0000      -0.328188        -8.9305
   9   0.0000       0.222546         6.0558
  10   0.0000       0.230084         6.2609
  11   0.0000       0.270279         7.3547
  12   0.0000       0.304020         8.2728
  13   0.0000       0.381713        10.3869

MULLIKEN ATOMIC CHARGES
-----------------------
   0 C :   -0.468523
   1 C :   -0.462425
   2 H :    0.150076
   3 H :    0.135136
   4 H :    0.140401
   5 H :    0.155952
   6 H :    0.140111
   7 H :    0.209273
Sum of atomic charges:   -0.0000000

LOEWDIN ATOMIC CHARGES
----------------------
   0 C :   -0.302776
   1 C :   -0.416045
   2 H :    0.109246
   3 H :    0.095013
   4 H :    0.086176
   5 H :    0.157116
   6 H :    0.126163
   7 H :    0.145108

  Mayer bond orders larger than 0.1
B(  0-C ,  1-C ) :   0.8467 B(  0-C ,  2-H ) :   0.9909 B(  0-C ,  3-H ) :   0.9914
B(  0-C ,  4-H ) :   0.9667 B(  1-C ,  5-H ) :   0.9321 B(  1-C ,  6-H ) :   0.9219
B(  1-C ,  7-H ) :   0.9678

FINAL SINGLE POINT ENERGY       -78.875495242925

DIPOLE MOMENT
-------------
                                X             Y             Z
Electronic contribution:      0.12571       0.25201       0.32078
Nuclear contribution   :     -0.00000      -0.37886      -0.65621
                        -----------------------------------------
Total Dipole Moment    :      0.12571      -0.12686      -0.33543
                        -----------------------------------------
Magnitude (a.u.)       :      0.38001
Magnitude (Debye)      :      0.96591

                             ****ORCA TERMINATED NORMALLY****
TOTAL RUN TIME: 0 days 0 hours 0 minutes 3 seconds 264 msec
