                         Program Version 4.0.1.2 - RELEASE -
|  1> !HF RHF 6-31G
|  2>     * int 0 1
|  3>     C 0 0 0 0 0 0
|  4>     C 1 0 0 1.22986 0 0
|  5>     H 1 2 0 1.08439 111.2 0
|  6>     H 1 2 3 1.08439 111.2 120
|  7>     H 1 2 3 1.08439 111.2 -120
|  8>     H 2 1 3 1.08439 111.2 180
|  9>     H 2 1 5 1.08439 111.2 120
| 10>     H 2 1 5 1.08439 111.2 240
| 11>     *
| 12>
| 13>
| 14>                          ****END OF INPUT****

CARTESIAN COORDINATES (ANGSTROEM)
---------------------------------
  C      0.000000    0.000000    0.000000
  C      1.229860    0.000000    0.000000
  H     -0.392142    1.011003    0.000000
  H     -0.392142   -0.505501   -0.875554
  H     -0.392142   -0.505501    0.875554
  H      1.622002   -1.011003    0.000000
  H      1.622002   -0.505501   -0.875554
  H      1.622002    1.011003   -0.000000

 Total Charge           Charge          ....    0
 Multiplicity           Mult            ....    1
 Number of Electrons    NEL             ....   18
 Basis Dimension        Dim             ....   30

ORBITAL ENERGIES
----------------

  NO   OCC          E(Eh)            E(eV)
   0   2.0000     -11.189126      -304.4716
   1   2.0000     -11.185299      -304.3675
   2   2.0000      -1.133048       -30.8318
   3   2.0000      -0.856629       -23.3101
   4   2.0000      -0.696917       -18.9641
   5   2.0000      -0.609976       -16.5983
   6   2.0000      -0.576003       -15.6738
   7   2.0000      -0.479814       -13.0564
   8   2.0000      -0.343510        -9.3474
   9   0.0000       0.225565         6.1379
  10   0.0000       0.237870         6.4728
  11   0.0000       0.280560         7.6344
  12   0.0000       0.301063         8.1923
  13   0.0000       0.376828        10.2540

MULLIKEN ATOMIC CHARGES
-----------------------
   0 C :   -0.460196
   1 C :   -0.475918
   2 H :    0.151142
   3 H :    0.138427
   4 H :    0.146769
   5 H :    0.157347
   6 H :    0.134766
   7 H :    0.207662
Sum of atomic charges:   -0.0000000

LOEWDIN ATOMIC CHARGES
----------------------
   0 C :   -0.306377
   1 C :   -0.423816
   2 H :    0.108971
   3 H :    0.096589
   4 H :    0.092524
   5 H :    0.160559
   6 H :    0.127268
   7 H :    0.144282

  Mayer bond orders larger than 0.1
B(  0-C ,  1-C ) :   0.8659 B(  0-C ,  2-H ) :   0.9854 B(  0-C ,  3-H ) :   0.9836
B(  0-C ,  4-H ) :   0.9680 B(  1-C ,  5-H ) :   0.9361 B(  1-C ,  6-H ) :   0.9186
B(  1-C ,  7-H ) :   0.9678

FINAL SINGLE POINT ENERGY       -78.986233962141

DIPOLE MOMENT
-------------
                                X             Y             Z
Electronic contribution:      0.10650       0.24533       0.33110
Nuclear contribution   :     -0.00000      -0.37886      -0.65621
                        -----------------------------------------
Total Dipole Moment    :      0.10650      -0.13353      -0.32511
                        -----------------------------------------
Magnitude (a.u.)       :      0.36725
Magnitude (Debye)      :      0.93347

                             ****ORCA TERMINATED NORMALLY****
TOTAL RUN TIME: 0 days 0 hours 0 minutes 3 seconds 326 msec
