                         Program Version 4.0.1.2 - RELEASE -
|  1> !HF RHF 6-31G
|  2>     * int 0 1
|  3>     C 0 0 0 0 0 0
|  4>     C 1 0 0 1.32986 0 0
|  5>     H 1 2 0 1.08439 111.2 0
|  6>     H 1 2 3 1.08439 111.2 120
|  7>     H 1 2 3 1.08439 111.2 -120
|  8>     H 2 1 3 1.08439 111.2 180
|  9>     H 2 1 5 1.08439 111.2 120
| 10>     H 2 1 5 1.08439 111.2 240
| 11>     *
| 12>
| 13>
| 14>                          ****END OF INPUT****

CARTESIAN COORDINATES (ANGSTROEM)
---------------------------------
  C      0.000000    0.000000    0.000000
  C      1.329860    0.000000    0.000000
  H     -0.392142    1.011003    0.000000
  H     -0.392142   -0.505501   -0.875554
  H     -0.392142   -0.505501    0.875554
  H      1.722002   -1.011003    0.000000
  H      1.722002   -0.505501   -0.875554
  H      1.722002    1.011003   -0.000000

 Total Charge           Charge          ....    0
 Multiplicity           Mult            ....    1
 Number of Electrons    NEL             ....   18
 Basis Dimension        Dim             ....   30

ORBITAL ENERGIES
----------------

  NO   OCC          E(Eh)            E(eV)
   0   2.0000     -11.195044      -304.6326
   1   2.0000     -11.192397      -304.5606
   2   2.0000      -1.096250       -29.8305
   3   2.0000      -0.864195       -23.5159
   4   2.0000      -0.680086       -18.5061
   5   2.0000      -0.589796       -16.0492
   6   2.0000      -0.558374       -15.1941
   7   2.0000      -0.491801       -13.3826
   8   2.0000      -0.356041        -9.6884
   9   0.0000       0.226144         6.1537
  10   0.0000       0.246268         6.7013
  11   0.0000       0.287580         7.8255
  12   0.0000       0.299139         8.1400
  13   0.0000       0.371858        10.1188

MULLIKEN ATOMIC CHARGES
-----------------------
   0 C :   -0.455505
   1 C :   -0.482795
   2 H :    0.152142
   3 H :    0.141193
   4 H :    0.151093
   5 H :    0.157973
   6 H :    0.130284
   7 H :    0.205615
Sum of atomic charges:    0.0000000

LOEWDIN ATOMIC CHARGES
----------------------
   0 C :   -0.309212
   1 C :   -0.430268
   2 H :    0.108836
   3 H :    0.098066
   4 H :    0.097183
   5 H :    0.163427
   6 H :    0.128193
   7 H :    0.143776

  Mayer bond orders larger than 0.1
B(  0-C ,  1-C ) :   0.8878 B(  0-C ,  2-H ) :   0.9793 B(  0-C ,  3-H ) :   0.9765
B(  0-C ,  4-H ) :   0.9665 B(  1-C ,  5-H ) :   0.9359 B(  1-C ,  6-H ) :   0.9143
B(  1-C ,  7-H ) :   0.9657

FINAL SINGLE POINT ENERGY       -79.045965590542

DIPOLE MOMENT
-------------
                                X             Y             Z
Electronic contribution:      0.09153       0.24194       0.33842
Nuclear contribution   :     -0.00000      -0.37886      -0.65621
                        -----------------------------------------
Total Dipole Moment    :      0.09153      -0.13692      -0.31780
                        -----------------------------------------
Magnitude (a.u.)       :      0.35794
Magnitude (Debye)      :      0.90980

                             ****ORCA TERMINATED NORMALLY****
TOTAL RUN TIME: 0 days 0 hours 0 minutes 3 seconds 440 msec
