                         Program Version 4.0.1.2 - RELEASE -
|  1> !HF RHF 6-31G
|  2>     * int 0 1
|  3>     C 0 0 0 0 0 0
|  4>     C 1 0 0 1.42986 0 0
|  5>     H 1 2 0 1.08439 111.2 0
|  6>     H 1 2 3 1.08439 111.2 120
|  7>     H 1 2 3 1.08439 111.2 -120
|  8>     H 2 1 3 1.08439 111.2 180
|  9>     H 2 1 5 1.08439 111.2 120
| 10>     H 2 1 5 1.08439 111.2 240
| 11>     *
| 12>
| 13>
| 14>                          ****END OF INPUT****

CARTESIAN COORDINATES (ANGSTROEM)
---------------------------------
  C      0.000000    0.000000    0.000000
  C      1.429860    0.000000    0.000000
  H     -0.392142    1.011003    0.000000
  H     -0.392142   -0.505501   -0.875554
  H     -0.392142   -0.505501    0.875554
  H      1.822002   -1.011003    0.000000
  H      1.822002   -0.505501   -0.875554
  H      1.822002    1.011003   -0.000000

 Total Charge           Charge          ....    0
 Multiplicity           Mult            ....    1
 Number of Electrons    NEL             ....   18
 Basis Dimension        Dim             ....   30

ORBITAL ENERGIES
----------------

  NO   OCC          E(Eh)            E(eV)
   0   2.0000     -11.202852      -304.8451
   1   2.0000     -11.201023      -304.7953
   2   2.0000      -1.065515       -28.9941
   3   2.0000      -0.871912       -23.7259
   4   2.0000      -0.666560       -18.1380
   5   2.0000      -0.574185       -15.6244
   6   2.0000      -0.541439       -14.7333
   7   2.0000      -0.499952       -13.6044
   8   2.0000      -0.366087        -9.9617
   9   0.0000       0.226519         6.1639
  10   0.0000       0.253538         6.8991
  11   0.0000       0.288440         7.8488
  12   0.0000       0.301303         8.1989
  13   0.0000       0.366662         9.9774

MULLIKEN ATOMIC CHARGES
-----------------------
   0 C :   -0.453049
   1 C :   -0.486093
   2 H :    0.153059
   3 H :    0.143555
   4 H :    0.154128
   5 H :    0.158305
   6 H :    0.126404
   7 H :    0.203690
Sum of atomic charges:   -0.0000000

LOEWDIN ATOMIC CHARGES
----------------------
   0 C :   -0.311412
   1 C :   -0.435899
   2 H :    0.108830
   3 H :    0.099464
   4 H :    0.100707
   5 H :    0.165858
   6 H :    0.128868
   7 H :    0.143583

  Mayer bond orders larger than 0.1
B(  0-C ,  1-C ) :   0.9099 B(  0-C ,  2-H ) :   0.9733 B(  0-C ,  3-H ) :   0.9699
B(  0-C ,  4-H ) :   0.9635 B(  1-C ,  5-H ) :   0.9331 B(  1-C ,  6-H ) :   0.9101
B(  1-C ,  7-H ) :   0.9621

FINAL SINGLE POINT ENERGY       -79.073689490206

DIPOLE MOMENT
-------------
                                X             Y             Z
Electronic contribution:      0.07911       0.24066       0.34340
Nuclear contribution   :     -0.00000      -0.37886      -0.65621
                        -----------------------------------------
Total Dipole Moment    :      0.07911      -0.13821      -0.31281
                        -----------------------------------------
Magnitude (a.u.)       :      0.35101
Magnitude (Debye)      :      0.89221

                             ****ORCA TERMINATED NORMALLY****
TOTAL RUN TIME: 0 days 0 hours 0 minutes 3 seconds 44 msec
