                         Program Version 4.0.1.2 - RELEASE -
|  1> !HF RHF 6-31G
|  2>     * int 0 1
|  3>     C 0 0 0 0 0 0
|  4>     C 1 0 0 1.52986 0 0
|  5>     H 1 2 0 1.08439 111.2 0
|  6>     H 1 2 3 1.08439 111.2 120
|  7>     H 1 2 3 1.08439 111.2 -120
|  8>     H 2 1 3 1.08439 111.2 180
|  9>     H 2 1 5 1.08439 111.2 120
| 10>     H 2 1 5 1.08439 111.2 240
| 11>     *
| 12>
| 13>
| 14>                          ****END OF INPUT****

CARTESIAN COORDINATES (ANGSTROEM)
---------------------------------
  C      0.000000    0.000000    0.000000
  C      1.529860    0.000000    0.000000
  H     -0.392142    1.011003    0.000000
  H     -0.392142   -0.505501   -0.875554
  H     -0.392142   -0.505501    0.875554
  H      1.922002   -1.011003    0.000000
  H      1.922002   -0.505501   -0.875554
  H      1.922002    1.011003   -0.000000

 Total Charge           Charge          ....    0
 Multiplicity           Mult            ....    1
 Number of Electrons    NEL             ....   18
 Basis Dimension        Dim             ....   30

ORBITAL ENERGIES
----------------

  NO   OCC          E(Eh)            E(eV)
   0   2.0000     -11.211032      -305.0677
   1   2.0000     -11.209915      -305.0373
   2   2.0000      -1.040735       -28.3198
   3   2.0000      -0.879244       -23.9254
   4   2.0000      -0.656002       -17.8507
   5   2.0000      -0.563105       -15.3229
   6   2.0000      -0.529334       -14.4039
   7   2.0000      -0.499974       -13.6050
   8   2.0000      -0.373873       -10.1736
   9   0.0000       0.226944         6.1755
  10   0.0000       0.259739         7.0679
  11   0.0000       0.284484         7.7412
  12   0.0000       0.306155         8.3309
  13   0.0000       0.360739         9.8162

MULLIKEN ATOMIC CHARGES
-----------------------
   0 C :   -0.451466
   1 C :   -0.487045
   2 H :    0.153729
   3 H :    0.145422
   4 H :    0.156135
   5 H :    0.158441
   6 H :    0.122807
   7 H :    0.201978
Sum of atomic charges:    0.0000000

LOEWDIN ATOMIC CHARGES
----------------------
   0 C :   -0.312971
   1 C :   -0.440818
   2 H :    0.108897
   3 H :    0.100742
   4 H :    0.103393
   5 H :    0.167900
   6 H :    0.129225
   7 H :    0.143630

  Mayer bond orders larger than 0.1
B(  0-C ,  1-C ) :   0.9302 B(  0-C ,  2-H ) :   0.9678 B(  0-C ,  3-H ) :   0.9642
B(  0-C ,  4-H ) :   0.9602 B(  1-C ,  5-H ) :   0.9292 B(  1-C ,  6-H ) :   0.9066
B(  1-C ,  7-H ) :   0.9578

FINAL SINGLE POINT ENERGY       -79.081531418111

DIPOLE MOMENT
-------------
                                X             Y             Z
Electronic contribution:      0.06829       0.24075       0.34665
Nuclear contribution   :      0.00000      -0.37886      -0.65621
                        -----------------------------------------
Total Dipole Moment    :      0.06829      -0.13811      -0.30956
                        -----------------------------------------
Magnitude (a.u.)       :      0.34578
Magnitude (Debye)      :      0.87890

                             ****ORCA TERMINATED NORMALLY****
TOTAL RUN TIME: 0 days 0 hours 0 minutes 3 seconds 23 msec
