                         Program Version 4.0.1.2 - RELEASE -
|  1> !HF RHF 6-31G
|  2>     * int 0 1
|  3>     C 0 0 0 0 0 0
|  4>     C 1 0 0 1.62986 0 0
|  5>     H 1 2 0 1.08439 111.2 0
|  6>     H 1 2 3 1.08439 111.2 120
|  7>     H 1 2 3 1.08439 111.2 -120
|  8>     H 2 1 3 1.08439 111.2 180
|  9>     H 2 1 5 1.08439 111.2 120
| 10>     H 2 1 5 1.08439 111.2 240
| 11>     *
| 12>
| 13>
| 14>                          ****END OF INPUT****

CARTESIAN COORDINATES (ANGSTROEM)
---------------------------------
  C      0.000000    0.000000    0.000000
  C      1.629860    0.000000    0.000000
  H     -0.392142    1.011003    0.000000
  H     -0.392142   -0.505501   -0.875554
  H     -0.392142   -0.505501    0.875554
  H      2.022002   -1.011003    0.000000
  H      2.022002   -0.505501   -0.875554
  H      2.022002    1.011003   -0.000000

 Total Charge           Charge          ....    0
 Multiplicity           Mult            ....    1
 Number of Electrons    NEL             ....   18
 Basis Dimension        Dim             ....   30

ORBITAL ENERGIES
----------------

  NO   OCC          E(Eh)            E(eV)
   0   2.0000     -11.219028      -305.2853
   1   2.0000     -11.218557      -305.2725
   2   2.0000      -1.021361       -27.7926
   3   2.0000      -0.885990       -24.1090
   4   2.0000      -0.648077       -17.6351
   5   2.0000      -0.555700       -15.1214
   6   2.0000      -0.528102       -14.3704
   7   2.0000      -0.486936       -13.2502
   8   2.0000      -0.379695       -10.3320
   9   0.0000       0.227357         6.1867
  10   0.0000       0.264942         7.2094
  11   0.0000       0.277980         7.5642
  12   0.0000       0.310861         8.4590
  13   0.0000       0.352225         9.5845

MULLIKEN ATOMIC CHARGES
-----------------------
   0 C :   -0.449634
   1 C :   -0.486103
   2 H :    0.153956
   3 H :    0.146653
   4 H :    0.157171
   5 H :    0.158353
   6 H :    0.119231
   7 H :    0.200372
Sum of atomic charges:   -0.0000000

LOEWDIN ATOMIC CHARGES
----------------------
   0 C :   -0.313846
   1 C :   -0.445002
   2 H :    0.108962
   3 H :    0.101843
   4 H :    0.105405
   5 H :    0.169581
   6 H :    0.129233
   7 H :    0.143824

  Mayer bond orders larger than 0.1
B(  0-C ,  1-C ) :   0.9473 B(  0-C ,  2-H ) :   0.9632 B(  0-C ,  3-H ) :   0.9595
B(  0-C ,  4-H ) :   0.9573 B(  1-C ,  5-H ) :   0.9252 B(  1-C ,  6-H ) :   0.9040
B(  1-C ,  7-H ) :   0.9535

FINAL SINGLE POINT ENERGY       -79.077218665255

DIPOLE MOMENT
-------------
                                X             Y             Z
Electronic contribution:      0.05858       0.24170       0.34862
Nuclear contribution   :      0.00000      -0.37886      -0.65621
                        -----------------------------------------
Total Dipole Moment    :      0.05858      -0.13716      -0.30759
                        -----------------------------------------
Magnitude (a.u.)       :      0.34184
Magnitude (Debye)      :      0.86889

                             ****ORCA TERMINATED NORMALLY****
TOTAL RUN TIME: 0 days 0 hours 0 minutes 2 seconds 919 msec
