                         Program Version 4.0.1.2 - RELEASE -
|  1> !HF RHF 6-31G
|  2>     * int 0 1
|  3>     C 0 0 0 0 0 0
|  4>     C 1 0 0 1.72986 0 0
|  5>     H 1 2 0 1.08439 111.2 0
|  6>     H 1 2 3 1.08439 111.2 120
|  7>     H 1 2 3 1.08439 111.2 -120
|  8>     H 2 1 3 1.08439 111.2 180
|  9>     H 2 1 5 1.08439 111.2 120
| 10>     H 2 1 5 1.08439 111.2 240
| 11>     *
| 12>
| 13>
| 14>                          ****END OF INPUT****

CARTESIAN COORDINATES (ANGSTROEM)
---------------------------------
  C      0.000000    0.000000    0.000000
  C      1.729860    0.000000    0.000000
  H     -0.392142    1.011003    0.000000
  H     -0.392142   -0.505501   -0.875554
  H     -0.392142   -0.505501    0.875554
  H      2.122002   -1.011003    0.000000
  H      2.122002   -0.505501   -0.875554
  H      2.122002    1.011003   -0.000000

 Total Charge           Charge          ....    0
 Multiplicity           Mult            ....    1
 Number of Electrons    NEL             ....   18
 Basis Dimension        Dim             ....   30

ORBITAL ENERGIES
----------------

  NO   OCC          E(Eh)            E(eV)
   0   2.0000     -11.226766      -305.4958
   1   2.0000     -11.226284      -305.4827
   2   2.0000      -1.006574       -27.3903
   3   2.0000      -0.892019       -24.2731
   4   2.0000      -0.642368       -17.4797
   5   2.0000      -0.550957       -14.9923
   6   2.0000      -0.531293       -14.4572
   7   2.0000      -0.468516       -12.7490
   8   2.0000      -0.383742       -10.4421
   9   0.0000       0.227540         6.1917
  10   0.0000       0.266889         7.2624
  11   0.0000       0.270524         7.3613
  12   0.0000       0.314854         8.5676
  13   0.0000       0.337397         9.1810

MULLIKEN ATOMIC CHARGES
-----------------------
   0 C :   -0.446933
   1 C :   -0.483467
   2 H :    0.153639
   3 H :    0.147184
   4 H :    0.157298
   5 H :    0.157996
   6 H :    0.115534
   7 H :    0.198748
Sum of atomic charges:   -0.0000000

LOEWDIN ATOMIC CHARGES
----------------------
   0 C :   -0.314062
   1 C :   -0.448393
   2 H :    0.108971
   3 H :    0.102733
   4 H :    0.106854
   5 H :    0.170922
   6 H :    0.128893
   7 H :    0.144082

  Mayer bond orders larger than 0.1
B(  0-C ,  1-C ) :   0.9604 B(  0-C ,  2-H ) :   0.9597 B(  0-C ,  3-H ) :   0.9561
B(  0-C ,  4-H ) :   0.9551 B(  1-C ,  5-H ) :   0.9216 B(  1-C ,  6-H ) :   0.9025
B(  1-C ,  7-H ) :   0.9497

FINAL SINGLE POINT ENERGY       -79.065654762225

DIPOLE MOMENT
-------------
                                X             Y             Z
Electronic contribution:      0.04984       0.24316       0.34964
Nuclear contribution   :      0.00000      -0.37886      -0.65621
                        -----------------------------------------
Total Dipole Moment    :      0.04984      -0.13570      -0.30657
                        -----------------------------------------
Magnitude (a.u.)       :      0.33895
Magnitude (Debye)      :      0.86154

                             ****ORCA TERMINATED NORMALLY****
TOTAL RUN TIME: 0 days 0 hours 0 minutes 2 seconds 964 msec
