                         Program Version 4.0.1.2 - RELEASE -
|  1> !HF RHF 6-31G
|  2>     * int 0 1
|  3>     C 0 0 0 0 0 0
|  4>     C 1 0 0 1.82986 0 0
|  5>     H 1 2 0 1.08439 111.2 0
|  6>     H 1 2 3 1.08439 111.2 120
|  7>     H 1 2 3 1.08439 111.2 -120
|  8>     H 2 1 3 1.08439 111.2 180
|  9>     H 2 1 5 1.08439 111.2 120
| 10>     H 2 1 5 1.08439 111.2 240
| 11>     *
| 12>
| 13>
| 14>                          ****END OF INPUT****

CARTESIAN COORDINATES (ANGSTROEM)
---------------------------------
  C      0.000000    0.000000    0.000000
  C      1.829860    0.000000    0.000000
  H     -0.392142    1.011003    0.000000
  H     -0.392142   -0.505501   -0.875554
  H     -0.392142   -0.505501    0.875554
  H      2.222002   -1.011003    0.000000
  H      2.222002   -0.505501   -0.875554
  H      2.222002    1.011003   -0.000000

 Total Charge           Charge          ....    0
 Multiplicity           Mult            ....    1
 Number of Electrons    NEL             ....   18
 Basis Dimension        Dim             ....   30

ORBITAL ENERGIES
----------------

  NO   OCC          E(Eh)            E(eV)
   0   2.0000     -11.234031      -305.6935
   1   2.0000     -11.232937      -305.6638
   2   2.0000      -0.995548       -27.0902
   3   2.0000      -0.897272       -24.4160
   4   2.0000      -0.638459       -17.3734
   5   2.0000      -0.548111       -14.9149
   6   2.0000      -0.534820       -14.5532
   7   2.0000      -0.449924       -12.2431
   8   2.0000      -0.386035       -10.5045
   9   0.0000       0.226690         6.1686
  10   0.0000       0.253279         6.8921
  11   0.0000       0.273410         7.4399
  12   0.0000       0.316671         8.6171
  13   0.0000       0.321886         8.7590

MULLIKEN ATOMIC CHARGES
-----------------------
   0 C :   -0.443311
   1 C :   -0.479463
   2 H :    0.152824
   3 H :    0.147083
   4 H :    0.156680
   5 H :    0.157393
   6 H :    0.111722
   7 H :    0.197071
Sum of atomic charges:   -0.0000000

LOEWDIN ATOMIC CHARGES
----------------------
   0 C :   -0.313750
   1 C :   -0.451013
   2 H :    0.108911
   3 H :    0.103416
   4 H :    0.107849
   5 H :    0.171967
   6 H :    0.128260
   7 H :    0.144360

  Mayer bond orders larger than 0.1
B(  0-C ,  1-C ) :   0.9696 B(  0-C ,  2-H ) :   0.9572 B(  0-C ,  3-H ) :   0.9537
B(  0-C ,  4-H ) :   0.9536 B(  1-C ,  5-H ) :   0.9185 B(  1-C ,  6-H ) :   0.9017
B(  1-C ,  7-H ) :   0.9465

FINAL SINGLE POINT ENERGY       -79.049930686805

DIPOLE MOMENT
-------------
                                X             Y             Z
Electronic contribution:      0.04205       0.24488       0.34990
Nuclear contribution   :      0.00000      -0.37886      -0.65621
                        -----------------------------------------
Total Dipole Moment    :      0.04205      -0.13398      -0.30631
                        -----------------------------------------
Magnitude (a.u.)       :      0.33696
Magnitude (Debye)      :      0.85648

                             ****ORCA TERMINATED NORMALLY****
TOTAL RUN TIME: 0 days 0 hours 0 minutes 3 seconds 129 msec
