                         Program Version 4.0.1.2 - RELEASE -
|  1> !HF RHF 6-31G
|  2>     * int 0 1
|  3>     C 0 0 0 0 0 0
|  4>     C 1 0 0 1.92986 0 0
|  5>     H 1 2 0 1.08439 111.2 0
|  6>     H 1 2 3 1.08439 111.2 120
|  7>     H 1 2 3 1.08439 111.2 -120
|  8>     H 2 1 3 1.08439 111.2 180
|  9>     H 2 1 5 1.08439 111.2 120
| 10>     H 2 1 5 1.08439 111.2 240
| 11>     *
| 12>
| 13>
| 14>                          ****END OF INPUT****

CARTESIAN COORDINATES (ANGSTROEM)
---------------------------------
  C      0.000000    0.000000    0.000000
  C      1.929860    0.000000    0.000000
  H     -0.392142    1.011003    0.000000
  H     -0.392142   -0.505501   -0.875554
  H     -0.392142   -0.505501    0.875554
  H      2.322002   -1.011003    0.000000
  H      2.322002   -0.505501   -0.875554
  H      2.322002    1.011003   -0.000000

 Total Charge           Charge          ....    0
 Multiplicity           Mult            ....    1
 Number of Electrons    NEL             ....   18
 Basis Dimension        Dim             ....   30

ORBITAL ENERGIES
----------------

  NO   OCC          E(Eh)            E(eV)
   0   2.0000     -11.240467      -305.8686
   1   2.0000     -11.238755      -305.8221
   2   2.0000      -0.987539       -26.8723
   3   2.0000      -0.901750       -24.5379
   4   2.0000      -0.635967       -17.3056
   5   2.0000      -0.546619       -14.8743
   6   2.0000      -0.537944       -14.6382
   7   2.0000      -0.433164       -11.7870
   8   2.0000      -0.386186       -10.5086
   9   0.0000       0.220205         5.9921
  10   0.0000       0.239259         6.5106
  11   0.0000       0.276255         7.5173
  12   0.0000       0.307080         8.3561
  13   0.0000       0.321933         8.7602

MULLIKEN ATOMIC CHARGES
-----------------------
   0 C :   -0.439134
   1 C :   -0.474608
   2 H :    0.151674
   3 H :    0.146530
   4 H :    0.155569
   5 H :    0.156642
   6 H :    0.107924
   7 H :    0.195404
Sum of atomic charges:   -0.0000000

LOEWDIN ATOMIC CHARGES
----------------------
   0 C :   -0.313142
   1 C :   -0.452983
   2 H :    0.108809
   3 H :    0.103940
   4 H :    0.108513
   5 H :    0.172784
   6 H :    0.127428
   7 H :    0.144651

  Mayer bond orders larger than 0.1
B(  0-C ,  1-C ) :   0.9754 B(  0-C ,  2-H ) :   0.9555 B(  0-C ,  3-H ) :   0.9522
B(  0-C ,  4-H ) :   0.9527 B(  1-C ,  5-H ) :   0.9160 B(  1-C ,  6-H ) :   0.9016
B(  1-C ,  7-H ) :   0.9439

FINAL SINGLE POINT ENERGY       -79.031982712442

DIPOLE MOMENT
-------------
                                X             Y             Z
Electronic contribution:      0.03523       0.24665       0.34953
Nuclear contribution   :     -0.00000      -0.37886      -0.65621
                        -----------------------------------------
Total Dipole Moment    :      0.03523      -0.13221      -0.30668
                        -----------------------------------------
Magnitude (a.u.)       :      0.33582
Magnitude (Debye)      :      0.85359

                             ****ORCA TERMINATED NORMALLY****
TOTAL RUN TIME: 0 days 0 hours 0 minutes 2 seconds 904 msec
