                         Program Version 4.0.1.2 - RELEASE -
|  1> !HF RHF 6-31G
|  2>     * int 0 1
|  3>     C 0 0 0 0 0 0
|  4>     C 1 0 0 2.02986 0 0
|  5>     H 1 2 0 1.08439 111.2 0
|  6>     H 1 2 3 1.08439 111.2 120
|  7>     H 1 2 3 1.08439 111.2 -120
|  8>     H 2 1 3 1.08439 111.2 180
|  9>     H 2 1 5 1.08439 111.2 120
| 10>     H 2 1 5 1.08439 111.2 240
| 11>     *
| 12>
| 13>
| 14>                          ****END OF INPUT****

CARTESIAN COORDINATES (ANGSTROEM)
---------------------------------
  C      0.000000    0.000000    0.000000
  C      2.029860    0.000000    0.000000
  H     -0.392142    1.011003    0.000000
  H     -0.392142   -0.505501   -0.875554
  H     -0.392142   -0.505501    0.875554
  H      2.422002   -1.011003    0.000000
  H      2.422002   -0.505501   -0.875554
  H      2.422002    1.011003   -0.000000

 Total Charge           Charge          ....    0
 Multiplicity           Mult            ....    1
 Number of Electrons    NEL             ....   18
 Basis Dimension        Dim             ....   30

ORBITAL ENERGIES
----------------

  NO   OCC          E(Eh)            E(eV)
   0   2.0000     -11.246072      -306.0212
   1   2.0000     -11.243789      -305.9591
   2   2.0000      -0.981912       -26.7192
   3   2.0000      -0.905512       -24.6402
   4   2.0000      -0.634563       -17.2673
   5   2.0000      -0.546089       -14.8598
   6   2.0000      -0.540611       -14.7108
   7   2.0000      -0.420149       -11.4328
   8   2.0000      -0.382985       -10.4216
   9   0.0000       0.201586         5.4854
  10   0.0000       0.234831         6.3901
  11   0.0000       0.278301         7.5730
  12   0.0000       0.299524         8.1505
  13   0.0000       0.324046         8.8177

MULLIKEN ATOMIC CHARGES
-----------------------
   0 C :   -0.434963
   1 C :   -0.469511
   2 H :    0.150408
   3 H :    0.145759
   4 H :    0.154249
   5 H :    0.155872
   6 H :    0.104321
   7 H :    0.193864
Sum of atomic charges:   -0.0000000

LOEWDIN ATOMIC CHARGES
----------------------
   0 C :   -0.312503
   1 C :   -0.454499
   2 H :    0.108720
   3 H :    0.104376
   4 H :    0.108970
   5 H :    0.173453
   6 H :    0.126510
   7 H :    0.144973

  Mayer bond orders larger than 0.1
B(  0-C ,  1-C ) :   0.9786 B(  0-C ,  2-H ) :   0.9544 B(  0-C ,  3-H ) :   0.9513
B(  0-C ,  4-H ) :   0.9522 B(  1-C ,  5-H ) :   0.9141 B(  1-C ,  6-H ) :   0.9018
B(  1-C ,  7-H ) :   0.9419

FINAL SINGLE POINT ENERGY       -79.013023538635

DIPOLE MOMENT
-------------
                                X             Y             Z
Electronic contribution:      0.02941       0.24832       0.34855
Nuclear contribution   :      0.00000      -0.37886      -0.65621
                        -----------------------------------------
Total Dipole Moment    :      0.02941      -0.13055      -0.30766
                        -----------------------------------------
Magnitude (a.u.)       :      0.33550
Magnitude (Debye)      :      0.85278

                             ****ORCA TERMINATED NORMALLY****
TOTAL RUN TIME: 0 days 0 hours 0 minutes 2 seconds 791 msec
