                         Program Version 4.0.1.2 - RELEASE -
|  1> !HF RHF 6-31G
|  2>     * int 0 1
|  3>     C 0 0 0 0 0 0
|  4>     C 1 0 0 2.12986 0 0
|  5>     H 1 2 0 1.08439 111.2 0
|  6>     H 1 2 3 1.08439 111.2 120
|  7>     H 1 2 3 1.08439 111.2 -120
|  8>     H 2 1 3 1.08439 111.2 180
|  9>     H 2 1 5 1.08439 111.2 120
| 10>     H 2 1 5 1.08439 111.2 240
| 11>     *
| 12>
| 13>
| 14>                          ****END OF INPUT****

CARTESIAN COORDINATES (ANGSTROEM)
---------------------------------
  C      0.000000    0.000000    0.000000
  C      2.129860    0.000000    0.000000
  H     -0.392142    1.011003    0.000000
  H     -0.392142   -0.505501   -0.875554
  H     -0.392142   -0.505501    0.875554
  H      2.522002   -1.011003    0.000000
  H      2.522002   -0.505501   -0.875554
  H      2.522002    1.011003   -0.000000

 Total Charge           Charge          ....    0
 Multiplicity           Mult            ....    1
 Number of Electrons    NEL             ....   18
 Basis Dimension        Dim             ....   30

ORBITAL ENERGIES
----------------

  NO   OCC          E(Eh)            E(eV)
   0   2.0000     -11.250918      -306.1530
   1   2.0000     -11.248115      -306.0768
   2   2.0000      -0.978134       -26.6164
   3   2.0000      -0.908655       -24.7257
   4   2.0000      -0.633970       -17.2512
   5   2.0000      -0.546238       -14.8639
   6   2.0000      -0.542904       -14.7732
   7   2.0000      -0.412587       -11.2271
   8   2.0000      -0.375105       -10.2071
   9   0.0000       0.179207         4.8765
  10   0.0000       0.234144         6.3714
  11   0.0000       0.279378         7.6023
  12   0.0000       0.294855         8.0234
  13   0.0000       0.325742         8.8639

MULLIKEN ATOMIC CHARGES
-----------------------
   0 C :   -0.431340
   1 C :   -0.464739
   2 H :    0.149236
   3 H :    0.144997
   4 H :    0.152973
   5 H :    0.155212
   6 H :    0.101087
   7 H :    0.192574
Sum of atomic charges:    0.0000000

LOEWDIN ATOMIC CHARGES
----------------------
   0 C :   -0.312076
   1 C :   -0.455774
   2 H :    0.108701
   3 H :    0.104797
   4 H :    0.109333
   5 H :    0.174051
   6 H :    0.125612
   7 H :    0.145357

  Mayer bond orders larger than 0.1
B(  0-C ,  1-C ) :   0.9797 B(  0-C ,  2-H ) :   0.9536 B(  0-C ,  3-H ) :   0.9508
B(  0-C ,  4-H ) :   0.9520 B(  1-C ,  5-H ) :   0.9125 B(  1-C ,  6-H ) :   0.9022
B(  1-C ,  7-H ) :   0.9402

FINAL SINGLE POINT ENERGY       -78.993820263120

DIPOLE MOMENT
-------------
                                X             Y             Z
Electronic contribution:      0.02453       0.24977       0.34700
Nuclear contribution   :      0.00000      -0.37886      -0.65621
                        -----------------------------------------
Total Dipole Moment    :      0.02453      -0.12910      -0.30921
                        -----------------------------------------
Magnitude (a.u.)       :      0.33598
Magnitude (Debye)      :      0.85399

                             ****ORCA TERMINATED NORMALLY****
TOTAL RUN TIME: 0 days 0 hours 0 minutes 2 seconds 940 msec
