                         Program Version 4.0.1.2 - RELEASE -
|  1> !HF RHF 6-31G
|  2>     * int 0 1
|  3>     C 0 0 0 0 0 0
|  4>     C 1 0 0 2.22986 0 0
|  5>     H 1 2 0 1.08439 111.2 0
|  6>     H 1 2 3 1.08439 111.2 120
|  7>     H 1 2 3 1.08439 111.2 -120
|  8>     H 2 1 3 1.08439 111.2 180
|  9>     H 2 1 5 1.08439 111.2 120
| 10>     H 2 1 5 1.08439 111.2 240
| 11>     *
| 12>
| 13>
| 14>                          ****END OF INPUT****

CARTESIAN COORDINATES (ANGSTROEM)
---------------------------------
  C      0.000000    0.000000    0.000000
  C      2.229860    0.000000    0.000000
  H     -0.392142    1.011003    0.000000
  H     -0.392142   -0.505501   -0.875554
  H     -0.392142   -0.505501    0.875554
  H      2.622002   -1.011003    0.000000
  H      2.622002   -0.505501   -0.875554
  H      2.622002    1.011003   -0.000000

 Total Charge           Charge          ....    0
 Multiplicity           Mult            ....    1
 Number of Electrons    NEL             ....   18
 Basis Dimension        Dim             ....   30

ORBITAL ENERGIES
----------------

  NO   OCC          E(Eh)            E(eV)
   0   2.0000     -11.255096      -306.2667
   1   2.0000     -11.251818      -306.1775
   2   2.0000      -0.975763       -26.5519
   3   2.0000      -0.911295       -24.7976
   4   2.0000      -0.633969       -17.2512
   5   2.0000      -0.546863       -14.8809
   6   2.0000      -0.544924       -14.8281
   7   2.0000      -0.409525       -11.1437
   8   2.0000      -0.363707        -9.8970
   9   0.0000       0.157326         4.2811
  10   0.0000       0.234113         6.3705
  11   0.0000       0.279332         7.6010
  12   0.0000       0.292211         7.9515
  13   0.0000       0.326969         8.8973

MULLIKEN ATOMIC CHARGES
-----------------------
   0 C :   -0.428681
   1 C :   -0.460732
   2 H :    0.148322
   3 H :    0.144421
   4 H :    0.151933
   5 H :    0.154758
   6 H :    0.098351
   7 H :    0.191629
Sum of atomic charges:    0.0000000

LOEWDIN ATOMIC CHARGES
----------------------
   0 C :   -0.312046
   1 C :   -0.456997
   2 H :    0.108799
   3 H :    0.105266
   4 H :    0.109691
   5 H :    0.174640
   6 H :    0.124820
   7 H :    0.145826

  Mayer bond orders larger than 0.1
B(  0-C ,  1-C ) :   0.9794 B(  0-C ,  2-H ) :   0.9531 B(  0-C ,  3-H ) :   0.9505
B(  0-C ,  4-H ) :   0.9519 B(  1-C ,  5-H ) :   0.9113 B(  1-C ,  6-H ) :   0.9027
B(  1-C ,  7-H ) :   0.9389

FINAL SINGLE POINT ENERGY       -78.974866464805

DIPOLE MOMENT
-------------
                                X             Y             Z
Electronic contribution:      0.02052       0.25093       0.34489
Nuclear contribution   :     -0.00000      -0.37886      -0.65621
                        -----------------------------------------
Total Dipole Moment    :      0.02052      -0.12794      -0.31132
                        -----------------------------------------
Magnitude (a.u.)       :      0.33721
Magnitude (Debye)      :      0.85711

                             ****ORCA TERMINATED NORMALLY****
TOTAL RUN TIME: 0 days 0 hours 0 minutes 2 seconds 860 msec
