                         Program Version 4.0.1.2 - RELEASE -
|  1> !HF RHF 6-31G
|  2>     * int 0 1
|  3>     C 0 0 0 0 0 0
|  4>     C 1 0 0 2.32986 0 0
|  5>     H 1 2 0 1.08439 111.2 0
|  6>     H 1 2 3 1.08439 111.2 120
|  7>     H 1 2 3 1.08439 111.2 -120
|  8>     H 2 1 3 1.08439 111.2 180
|  9>     H 2 1 5 1.08439 111.2 120
| 10>     H 2 1 5 1.08439 111.2 240
| 11>     *
| 12>
| 13>
| 14>                          ****END OF INPUT****

CARTESIAN COORDINATES (ANGSTROEM)
---------------------------------
  C      0.000000    0.000000    0.000000
  C      2.329860    0.000000    0.000000
  H     -0.392142    1.011003    0.000000
  H     -0.392142   -0.505501   -0.875554
  H     -0.392142   -0.505501    0.875554
  H      2.722002   -1.011003    0.000000
  H      2.722002   -0.505501   -0.875554
  H      2.722002    1.011003   -0.000000

 Total Charge           Charge          ....    0
 Multiplicity           Mult            ....    1
 Number of Electrons    NEL             ....   18
 Basis Dimension        Dim             ....   30

ORBITAL ENERGIES
----------------

  NO   OCC          E(Eh)            E(eV)
   0   2.0000     -11.258424      -306.3573
   1   2.0000     -11.255183      -306.2691
   2   2.0000      -0.974500       -26.5175
   3   2.0000      -0.913461       -24.8565
   4   2.0000      -0.634453       -17.2643
   5   2.0000      -0.547729       -14.9045
   6   2.0000      -0.546661       -14.8754
   7   2.0000      -0.408758       -11.1229
   8   2.0000      -0.351165        -9.5557
   9   0.0000       0.136878         3.7246
  10   0.0000       0.234171         6.3721
  11   0.0000       0.278287         7.5726
  12   0.0000       0.290962         7.9175
  13   0.0000       0.327788         8.9196

MULLIKEN ATOMIC CHARGES
-----------------------
   0 C :   -0.427175
   1 C :   -0.457872
   2 H :    0.147770
   3 H :    0.144134
   4 H :    0.151236
   5 H :    0.154585
   6 H :    0.096233
   7 H :    0.191090
Sum of atomic charges:   -0.0000000

LOEWDIN ATOMIC CHARGES
----------------------
   0 C :   -0.312478
   1 C :   -0.458418
   2 H :    0.109043
   3 H :    0.105816
   4 H :    0.110101
   5 H :    0.175289
   6 H :    0.124232
   7 H :    0.146415

  Mayer bond orders larger than 0.1
B(  0-C ,  1-C ) :   0.9783 B(  0-C ,  2-H ) :   0.9526 B(  0-C ,  3-H ) :   0.9503
B(  0-C ,  4-H ) :   0.9518 B(  1-C ,  5-H ) :   0.9101 B(  1-C ,  6-H ) :   0.9030
B(  1-C ,  7-H ) :   0.9376

FINAL SINGLE POINT ENERGY       -78.956483613922

DIPOLE MOMENT
-------------
                                X             Y             Z
Electronic contribution:      0.01723       0.25172       0.34220
Nuclear contribution   :      0.00000      -0.37886      -0.65621
                        -----------------------------------------
Total Dipole Moment    :      0.01723      -0.12714      -0.31401
                        -----------------------------------------
Magnitude (a.u.)       :      0.33921
Magnitude (Debye)      :      0.86220

                             ****ORCA TERMINATED NORMALLY****
TOTAL RUN TIME: 0 days 0 hours 0 minutes 3 seconds 90 msec
