                         Program Version 4.0.1.2 - RELEASE -
|  1> !HF RHF 6-31G
|  2>     * int 0 1
|  3>     C 0 0 0 0 0 0
|  4>     C 1 0 0 2.42986 0 0
|  5>     H 1 2 0 1.08439 111.2 0
|  6>     H 1 2 3 1.08439 111.2 120
|  7>     H 1 2 3 1.08439 111.2 -120
|  8>     H 2 1 3 1.08439 111.2 180
|  9>     H 2 1 5 1.08439 111.2 120
| 10>     H 2 1 5 1.08439 111.2 240
| 11>     *
| 12>
| 13>
| 14>                          ****END OF INPUT****

CARTESIAN COORDINATES (ANGSTROEM)
---------------------------------
  C      0.000000    0.000000    0.000000
  C      2.429860    0.000000    0.000000
  H     -0.392142    1.011003    0.000000
  H     -0.392142   -0.505501   -0.875554
  H     -0.392142   -0.505501    0.875554
  H      2.822002   -1.011003    0.000000
  H      2.822002   -0.505501   -0.875554
  H      2.822002    1.011003   -0.000000

 Total Charge           Charge          ....    0
 Multiplicity           Mult            ....    1
 Number of Electrons    NEL             ....   18
 Basis Dimension        Dim             ....   30

ORBITAL ENERGIES
----------------

  NO   OCC          E(Eh)            E(eV)
   0   2.0000     -11.261446      -306.4395
   1   2.0000     -11.257989      -306.3455
   2   2.0000      -0.973971       -26.5031
   3   2.0000      -0.915386       -24.9089
   4   2.0000      -0.635196       -17.2846
   5   2.0000      -0.548874       -14.9356
   6   2.0000      -0.548290       -14.9197
   7   2.0000      -0.408940       -11.1278
   8   2.0000      -0.338778        -9.2186
   9   0.0000       0.118018         3.2114
  10   0.0000       0.234204         6.3730
  11   0.0000       0.276676         7.5287
  12   0.0000       0.290454         7.9037
  13   0.0000       0.328216         8.9312

MULLIKEN ATOMIC CHARGES
-----------------------
   0 C :   -0.426975
   1 C :   -0.456104
   2 H :    0.147612
   3 H :    0.144200
   4 H :    0.150936
   5 H :    0.154696
   6 H :    0.094672
   7 H :    0.190963
Sum of atomic charges:   -0.0000000

LOEWDIN ATOMIC CHARGES
----------------------
   0 C :   -0.313483
   1 C :   -0.459930
   2 H :    0.109436
   3 H :    0.106473
   4 H :    0.110598
   5 H :    0.175987
   6 H :    0.123815
   7 H :    0.147104

  Mayer bond orders larger than 0.1
B(  0-C ,  1-C ) :   0.9766 B(  0-C ,  2-H ) :   0.9522 B(  0-C ,  3-H ) :   0.9501
B(  0-C ,  4-H ) :   0.9516 B(  1-C ,  5-H ) :   0.9091 B(  1-C ,  6-H ) :   0.9032
B(  1-C ,  7-H ) :   0.9365

FINAL SINGLE POINT ENERGY       -78.938878326095

DIPOLE MOMENT
-------------
                                X             Y             Z
Electronic contribution:      0.01475       0.25223       0.33911
Nuclear contribution   :     -0.00000      -0.37886      -0.65621
                        -----------------------------------------
Total Dipole Moment    :      0.01475      -0.12664      -0.31711
                        -----------------------------------------
Magnitude (a.u.)       :      0.34177
Magnitude (Debye)      :      0.86872

                             ****ORCA TERMINATED NORMALLY****
TOTAL RUN TIME: 0 days 0 hours 0 minutes 3 seconds 12 msec
