                         Program Version 4.0.1.2 - RELEASE -
|  1> !HF RHF 6-31G
|  2>     * int 0 1
|  3>     C 0 0 0 0 0 0
|  4>     C 1 0 0 2.52986 0 0
|  5>     H 1 2 0 1.08439 111.2 0
|  6>     H 1 2 3 1.08439 111.2 120
|  7>     H 1 2 3 1.08439 111.2 -120
|  8>     H 2 1 3 1.08439 111.2 180
|  9>     H 2 1 5 1.08439 111.2 120
| 10>     H 2 1 5 1.08439 111.2 240
| 11>     *
| 12>
| 13>
| 14>                          ****END OF INPUT****

CARTESIAN COORDINATES (ANGSTROEM)
---------------------------------
  C      0.000000    0.000000    0.000000
  C      2.529860    0.000000    0.000000
  H     -0.392142    1.011003    0.000000
  H     -0.392142   -0.505501   -0.875554
  H     -0.392142   -0.505501    0.875554
  H      2.922002   -1.011003    0.000000
  H      2.922002   -0.505501   -0.875554
  H      2.922002    1.011003   -0.000000

 Total Charge           Charge          ....    0
 Multiplicity           Mult            ....    1
 Number of Electrons    NEL             ....   18
 Basis Dimension        Dim             ....   30

ORBITAL ENERGIES
----------------

  NO   OCC          E(Eh)            E(eV)
   0   2.0000     -11.264020      -306.5096
   1   2.0000     -11.260425      -306.4117
   2   2.0000      -0.973989       -26.5036
   3   2.0000      -0.917083       -24.9551
   4   2.0000      -0.636137       -17.3102
   5   2.0000      -0.550171       -14.9709
   6   2.0000      -0.549764       -14.9598
   7   2.0000      -0.409581       -11.1453
   8   2.0000      -0.327052        -8.8995
   9   0.0000       0.100716         2.7406
  10   0.0000       0.234155         6.3717
  11   0.0000       0.274886         7.4800
  12   0.0000       0.290204         7.8969
  13   0.0000       0.328337         8.9345

MULLIKEN ATOMIC CHARGES
-----------------------
   0 C :   -0.428000
   1 C :   -0.455499
   2 H :    0.147849
   3 H :    0.144622
   4 H :    0.151029
   5 H :    0.155093
   6 H :    0.093673
   7 H :    0.191232
Sum of atomic charges:   -0.0000000

LOEWDIN ATOMIC CHARGES
----------------------
   0 C :   -0.315009
   1 C :   -0.461648
   2 H :    0.109973
   3 H :    0.107235
   4 H :    0.111192
   5 H :    0.176758
   6 H :    0.123601
   7 H :    0.147897

  Mayer bond orders larger than 0.1
B(  0-C ,  1-C ) :   0.9747 B(  0-C ,  2-H ) :   0.9518 B(  0-C ,  3-H ) :   0.9499
B(  0-C ,  4-H ) :   0.9513 B(  1-C ,  5-H ) :   0.9081 B(  1-C ,  6-H ) :   0.9033
B(  1-C ,  7-H ) :   0.9354

FINAL SINGLE POINT ENERGY       -78.922175263855

DIPOLE MOMENT
-------------
                                X             Y             Z
Electronic contribution:      0.01292       0.25243       0.33562
Nuclear contribution   :      0.00000      -0.37886      -0.65621
                        -----------------------------------------
Total Dipole Moment    :      0.01292      -0.12643      -0.32059
                        -----------------------------------------
Magnitude (a.u.)       :      0.34486
Magnitude (Debye)      :      0.87657

                             ****ORCA TERMINATED NORMALLY****
TOTAL RUN TIME: 0 days 0 hours 0 minutes 3 seconds 340 msec
