                         Program Version 4.0.1.2 - RELEASE -
|  1> !HF RHF 6-31G
|  2>     * int 0 1
|  3>     C 0 0 0 0 0 0
|  4>     C 1 0 0 1.52986 0 0
|  5>     H 1 2 0 1.08439 111.2 0
|  6>     H 1 2 3 1.08439 111.2 120
|  7>     H 1 2 3 1.08439 111.2 -120
|  8>     H 2 1 3 1.08439 111.2 180.0
|  9>     H 2 1 5 1.08439 111.2 120.0
| 10>     H 2 1 5 1.08439 111.2 240.0
| 11>     *
| 12>
| 13>
| 14>                          ****END OF INPUT****

CARTESIAN COORDINATES (ANGSTROEM)
---------------------------------
  C      0.000000    0.000000    0.000000
  C      1.529860    0.000000    0.000000
  H     -0.392142    1.011003    0.000000
  H     -0.392142   -0.505501   -0.875554
  H     -0.392142   -0.505501    0.875554
  H      1.922002   -1.011003    0.000000
  H      1.922002   -0.505501   -0.875554
  H      1.922002    1.011003   -0.000000

 Total Charge           Charge          ....    0
 Multiplicity           Mult            ....    1
 Number of Electrons    NEL             ....   18
 Basis Dimension        Dim             ....   30

ORBITAL ENERGIES
----------------

  NO   OCC          E(Eh)            E(eV)
   0   2.0000     -11.210894      -305.0639
   1   2.0000     -11.209787      -305.0338
   2   2.0000      -1.040684       -28.3184
   3   2.0000      -0.879205       -23.9244
   4   2.0000      -0.655961       -17.8496
   5   2.0000      -0.563066       -15.3218
   6   2.0000      -0.529288       -14.4027
   7   2.0000      -0.499926       -13.6037
   8   2.0000      -0.373835       -10.1726
   9   0.0000       0.226958         6.1758
  10   0.0000       0.259756         7.0683
  11   0.0000       0.284500         7.7416
  12   0.0000       0.306173         8.3314
  13   0.0000       0.360758         9.8167

MULLIKEN ATOMIC CHARGES
-----------------------
   0 C :   -0.451463
   1 C :   -0.486994
   2 H :    0.153726
   3 H :    0.145412
   4 H :    0.156140
   5 H :    0.158403
   6 H :    0.122813
   7 H :    0.201964
Sum of atomic charges:    0.0000000

LOEWDIN ATOMIC CHARGES
----------------------
   0 C :   -0.312962
   1 C :   -0.440781
   2 H :    0.108893
   3 H :    0.100735
   4 H :    0.103393
   5 H :    0.167876
   6 H :    0.129223
   7 H :    0.143623

  Mayer bond orders larger than 0.1
B(  0-C ,  1-C ) :   0.9303 B(  0-C ,  2-H ) :   0.9678 B(  0-C ,  3-H ) :   0.9642
B(  0-C ,  4-H ) :   0.9602 B(  1-C ,  5-H ) :   0.9293 B(  1-C ,  6-H ) :   0.9066
B(  1-C ,  7-H ) :   0.9578

FINAL SINGLE POINT ENERGY       -79.081531425729

DIPOLE MOMENT
-------------
                                X             Y             Z
Electronic contribution:      0.06828       0.24079       0.34668
Nuclear contribution   :      0.00000      -0.37886      -0.65621
                        -----------------------------------------
Total Dipole Moment    :      0.06828      -0.13807      -0.30953
                        -----------------------------------------
Magnitude (a.u.)       :      0.34574
Magnitude (Debye)      :      0.87880

                             ****ORCA TERMINATED NORMALLY****
TOTAL RUN TIME: 0 days 0 hours 0 minutes 3 seconds 365 msec
