                         Program Version 4.0.1.2 - RELEASE -
|  1> !HF RHF 6-31G
|  2>     * int 0 1
|  3>     C 0 0 0 0 0 0
|  4>     C 1 0 0 1.52986 0 0
|  5>     H 1 2 0 1.08439 113.2 0
|  6>     H 1 2 3 1.08439 113.2 120
|  7>     H 1 2 3 1.08439 113.2 -120
|  8>     H 2 1 3 1.08439 113.2 180
|  9>     H 2 1 5 1.08439 113.2 120
| 10>     H 2 1 5 1.08439 113.2 240
| 11>     *
| 12>
| 13>
| 14>                          ****END OF INPUT****

CARTESIAN COORDINATES (ANGSTROEM)
---------------------------------
  C      0.000000    0.000000    0.000000
  C      1.529860    0.000000    0.000000
  H     -0.427187    0.996701    0.000000
  H     -0.427187   -0.498351   -0.863169
  H     -0.427187   -0.498351    0.863169
  H      1.957047   -0.996701    0.000000
  H      1.957047   -0.498351   -0.863169
  H      1.957047    0.996701   -0.000000

 Total Charge           Charge          ....    0
 Multiplicity           Mult            ....    1
 Number of Electrons    NEL             ....   18
 Basis Dimension        Dim             ....   30

ORBITAL ENERGIES
----------------

  NO   OCC          E(Eh)            E(eV)
   0   2.0000     -11.212237      -305.1005
   1   2.0000     -11.211227      -305.0730
   2   2.0000      -1.039164       -28.2771
   3   2.0000      -0.885799       -24.1038
   4   2.0000      -0.651592       -17.7307
   5   2.0000      -0.559031       -15.2120
   6   2.0000      -0.533308       -14.5121
   7   2.0000      -0.503305       -13.6956
   8   2.0000      -0.372335       -10.1318
   9   0.0000       0.230182         6.2636
  10   0.0000       0.262374         7.1396
  11   0.0000       0.280882         7.6432
  12   0.0000       0.305891         8.3237
  13   0.0000       0.362473         9.8634

MULLIKEN ATOMIC CHARGES
-----------------------
   0 C :   -0.453971
   1 C :   -0.479587
   2 H :    0.155899
   3 H :    0.146358
   4 H :    0.155714
   5 H :    0.153742
   6 H :    0.123820
   7 H :    0.198026
Sum of atomic charges:   -0.0000000

LOEWDIN ATOMIC CHARGES
----------------------
   0 C :   -0.312928
   1 C :   -0.440265
   2 H :    0.109783
   3 H :    0.100483
   4 H :    0.102619
   5 H :    0.167261
   6 H :    0.132199
   7 H :    0.140848

  Mayer bond orders larger than 0.1
B(  0-C ,  1-C ) :   0.9368 B(  0-C ,  2-H ) :   0.9662 B(  0-C ,  3-H ) :   0.9625
B(  0-C ,  4-H ) :   0.9595 B(  1-C ,  5-H ) :   0.9241 B(  1-C ,  6-H ) :   0.9000
B(  1-C ,  7-H ) :   0.9579

FINAL SINGLE POINT ENERGY       -79.081623132149

DIPOLE MOMENT
-------------
                                X             Y             Z
Electronic contribution:      0.07263       0.23297       0.33352
Nuclear contribution   :      0.00000      -0.37350      -0.64693
                        -----------------------------------------
Total Dipole Moment    :      0.07263      -0.14053      -0.31341
                        -----------------------------------------
Magnitude (a.u.)       :      0.35107
Magnitude (Debye)      :      0.89234

                             ****ORCA TERMINATED NORMALLY****
TOTAL RUN TIME: 0 days 0 hours 0 minutes 1 seconds 239 msec
